<?xml version="1.0"?>

<!-- generated on lun. 07 oct. 2013 16:47:56 CEST by SUMO gui Version 0.16.0
<?xml version="1.0" encoding="UTF-8"?>

<configuration xmlns:xsi="http://www.w3.org/2001/XMLSchema-instance" xsi:noNamespaceSchemaLocation="http://sumo.sf.net/xsd/sumo-gui.exeConfiguration.xsd">

    <input>
        <net-file value="data/map.net.xml"/>
        <route-files value="data/map.rou.xml"/>
    </input>

    <output>
        <tripinfo-output value="data/maptripinfoWO.out.xml"/>
    </output>

    <time>
        <begin value="0"/>
    </time>

    <processing>
        <time-to-teleport value="-1"/>
        <lanechange.allow-swap value="true"/>
    </processing>

    <report>
        <no-step-log value="true"/>
    </report>

</configuration>
-->

<tripinfos>
    <tripinfo id="6" depart="6.00" departLane="-138231959#0_0" departPos="5.10" departSpeed="0.00" departDelay="0.00" arrival="70.00" arrivalLane="-119438058#5_0" arrivalPos="86.71" arrivalSpeed="12.71" duration="64.00" routeLength="735.46" waitSteps="0" rerouteNo="0" devices="tripinfo_6" vType="DEFAULT_VEHTYPE" vaporized=""/>
    <tripinfo id="4" depart="4.00" departLane="30835643_0" departPos="5.10" departSpeed="0.00" departDelay="0.00" arrival="84.00" arrivalLane="128932869#1_0" arrivalPos="42.74" arrivalSpeed="26.71" duration="80.00" routeLength="1006.40" waitSteps="0" rerouteNo="0" devices="tripinfo_4" vType="DEFAULT_VEHTYPE" vaporized=""/>
    <tripinfo id="79" depart="79.00" departLane="-33581447#1_0" departPos="5.10" departSpeed="0.00" departDelay="0.00" arrival="88.00" arrivalLane="-33581447#0_0" arrivalPos="51.38" arrivalSpeed="16.49" duration="9.00" routeLength="74.46" waitSteps="0" rerouteNo="0" devices="tripinfo_79" vType="DEFAULT_VEHTYPE" vaporized=""/>
    <tripinfo id="23" depart="23.00" departLane="60412902#1_0" departPos="5.10" departSpeed="0.00" departDelay="0.00" arrival="97.00" arrivalLane="-7395437#0_0" arrivalPos="93.01" arrivalSpeed="12.74" duration="74.00" routeLength="1081.97" waitSteps="4" rerouteNo="0" devices="tripinfo_23" vType="DEFAULT_VEHTYPE" vaporized=""/>
    <tripinfo id="37" depart="37.00" departLane="33581447#1_0" departPos="5.10" departSpeed="0.00" departDelay="0.00" arrival="100.00" arrivalLane="4325628#3_0" arrivalPos="108.62" arrivalSpeed="13.55" duration="63.00" routeLength="788.30" waitSteps="0" rerouteNo="0" devices="tripinfo_37" vType="DEFAULT_VEHTYPE" vaporized=""/>
    <tripinfo id="9" depart="9.00" departLane="33581450#2_0" departPos="5.10" departSpeed="0.00" departDelay="0.00" arrival="109.00" arrivalLane="174044127#1_0" arrivalPos="47.58" arrivalSpeed="16.56" duration="100.00" routeLength="427.76" waitSteps="56" rerouteNo="0" devices="tripinfo_9" vType="DEFAULT_VEHTYPE" vaporized=""/>
    <tripinfo id="5" depart="5.00" departLane="8080867_0" departPos="5.10" departSpeed="0.00" departDelay="0.00" arrival="110.00" arrivalLane="128930536_0" arrivalPos="51.37" arrivalSpeed="11.55" duration="105.00" routeLength="847.25" waitSteps="47" rerouteNo="0" devices="tripinfo_5" vType="DEFAULT_VEHTYPE" vaporized=""/>
    <tripinfo id="39" depart="40.00" departLane="33581447#1_0" departPos="5.10" departSpeed="0.00" departDelay="1.00" arrival="121.00" arrivalLane="120171995#4_0" arrivalPos="4.49" arrivalSpeed="13.56" duration="81.00" routeLength="558.94" waitSteps="13" rerouteNo="0" devices="tripinfo_39" vType="DEFAULT_VEHTYPE" vaporized=""/>
    <tripinfo id="10" depart="10.00" departLane="207728318#2_0" departPos="5.10" departSpeed="0.00" departDelay="0.00" arrival="134.00" arrivalLane="8100169#1_0" arrivalPos="69.94" arrivalSpeed="21.65" duration="124.00" routeLength="949.03" waitSteps="36" rerouteNo="0" devices="tripinfo_10" vType="DEFAULT_VEHTYPE" vaporized=""/>
    <tripinfo id="119" depart="119.00" departLane="119438058#5_0" departPos="5.10" departSpeed="0.00" departDelay="0.00" arrival="135.00" arrivalLane="119438058#7_0" arrivalPos="22.55" arrivalSpeed="12.70" duration="16.00" routeLength="167.46" waitSteps="0" rerouteNo="0" devices="tripinfo_119" vType="DEFAULT_VEHTYPE" vaporized=""/>
    <tripinfo id="30" depart="30.00" departLane="7917435#5_0" departPos="5.10" departSpeed="0.00" departDelay="0.00" arrival="136.00" arrivalLane="25809315#8_0" arrivalPos="14.72" arrivalSpeed="13.26" duration="106.00" routeLength="633.98" waitSteps="32" rerouteNo="0" devices="tripinfo_30" vType="DEFAULT_VEHTYPE" vaporized=""/>
    <tripinfo id="72" depart="72.00" departLane="7345550#2_0" departPos="5.10" departSpeed="0.00" departDelay="0.00" arrival="138.00" arrivalLane="-180814145#3_0" arrivalPos="101.81" arrivalSpeed="13.80" duration="66.00" routeLength="764.68" waitSteps="0" rerouteNo="0" devices="tripinfo_72" vType="DEFAULT_VEHTYPE" vaporized=""/>
    <tripinfo id="40" depart="40.00" departLane="-7345550#2_0" departPos="5.10" departSpeed="0.00" departDelay="0.00" arrival="141.00" arrivalLane="7345553#0_0" arrivalPos="157.20" arrivalSpeed="12.76" duration="101.00" routeLength="1076.72" waitSteps="0" rerouteNo="0" devices="tripinfo_40" vType="DEFAULT_VEHTYPE" vaporized=""/>
    <tripinfo id="91" depart="91.00" departLane="-19897787#2_0" departPos="5.10" departSpeed="0.00" departDelay="0.00" arrival="144.00" arrivalLane="19897787#2_0" arrivalPos="15.72" arrivalSpeed="10.64" duration="53.00" routeLength="574.48" waitSteps="0" rerouteNo="0" devices="tripinfo_91" vType="DEFAULT_VEHTYPE" vaporized=""/>
    <tripinfo id="77" depart="77.00" departLane="4325634#7_0" departPos="5.10" departSpeed="0.00" departDelay="0.00" arrival="145.00" arrivalLane="7345553#1_0" arrivalPos="91.36" arrivalSpeed="13.38" duration="68.00" routeLength="815.86" waitSteps="0" rerouteNo="0" devices="tripinfo_77" vType="DEFAULT_VEHTYPE" vaporized=""/>
    <tripinfo id="26" depart="26.00" departLane="7345567#0_0" departPos="5.10" departSpeed="0.00" departDelay="0.00" arrival="147.00" arrivalLane="-8100169#2_0" arrivalPos="56.75" arrivalSpeed="15.01" duration="121.00" routeLength="695.28" waitSteps="49" rerouteNo="0" devices="tripinfo_26" vType="DEFAULT_VEHTYPE" vaporized=""/>
    <tripinfo id="19" depart="19.00" departLane="-29205082#3_0" departPos="5.10" departSpeed="0.00" departDelay="0.00" arrival="148.00" arrivalLane="122317544#1_0" arrivalPos="22.68" arrivalSpeed="17.81" duration="129.00" routeLength="817.17" waitSteps="39" rerouteNo="0" devices="tripinfo_19" vType="DEFAULT_VEHTYPE" vaporized=""/>
    <tripinfo id="18" depart="18.00" departLane="207728319#8_0" departPos="5.10" departSpeed="0.00" departDelay="0.00" arrival="149.00" arrivalLane="-207728319#7_0" arrivalPos="84.81" arrivalSpeed="12.60" duration="131.00" routeLength="479.14" waitSteps="58" rerouteNo="0" devices="tripinfo_18" vType="DEFAULT_VEHTYPE" vaporized=""/>
    <tripinfo id="88" depart="88.00" departLane="7655227#0_0" departPos="5.10" departSpeed="0.00" departDelay="0.00" arrival="149.00" arrivalLane="-181422641#0_0" arrivalPos="29.10" arrivalSpeed="11.34" duration="61.00" routeLength="701.42" waitSteps="0" rerouteNo="0" devices="tripinfo_88" vType="DEFAULT_VEHTYPE" vaporized=""/>
    <tripinfo id="41" depart="41.00" departLane="-43941802_0" departPos="5.10" departSpeed="0.00" departDelay="0.00" arrival="154.00" arrivalLane="174044130#2_0" arrivalPos="57.32" arrivalSpeed="21.39" duration="113.00" routeLength="510.16" waitSteps="55" rerouteNo="0" devices="tripinfo_41" vType="DEFAULT_VEHTYPE" vaporized=""/>
    <tripinfo id="33" depart="33.00" departLane="-7917432_0" departPos="5.10" departSpeed="0.00" departDelay="0.00" arrival="154.00" arrivalLane="7917439#5_0" arrivalPos="7.85" arrivalSpeed="6.33" duration="121.00" routeLength="362.58" waitSteps="70" rerouteNo="0" devices="tripinfo_33" vType="DEFAULT_VEHTYPE" vaporized=""/>
    <tripinfo id="46" depart="46.00" departLane="224610352_0" departPos="5.10" departSpeed="0.00" departDelay="0.00" arrival="157.00" arrivalLane="7653575#0_0" arrivalPos="59.48" arrivalSpeed="16.08" duration="111.00" routeLength="783.88" waitSteps="35" rerouteNo="0" devices="tripinfo_46" vType="DEFAULT_VEHTYPE" vaporized=""/>
    <tripinfo id="47" depart="49.00" departLane="-130801488#1_0" departPos="5.10" departSpeed="0.00" departDelay="2.00" arrival="159.00" arrivalLane="-115974092#0_0" arrivalPos="151.07" arrivalSpeed="13.38" duration="110.00" routeLength="1115.82" waitSteps="13" rerouteNo="0" devices="tripinfo_47" vType="DEFAULT_VEHTYPE" vaporized=""/>
    <tripinfo id="38" depart="38.00" departLane="60412902#5_0" departPos="5.10" departSpeed="0.00" departDelay="0.00" arrival="171.00" arrivalLane="120171995#2_0" arrivalPos="10.32" arrivalSpeed="12.61" duration="133.00" routeLength="1095.25" waitSteps="25" rerouteNo="0" devices="tripinfo_38" vType="DEFAULT_VEHTYPE" vaporized=""/>
    <tripinfo id="50" depart="50.00" departLane="-7917435#0_0" departPos="5.10" departSpeed="0.00" departDelay="0.00" arrival="173.00" arrivalLane="-10361810#0_0" arrivalPos="47.65" arrivalSpeed="7.48" duration="123.00" routeLength="848.86" waitSteps="34" rerouteNo="0" devices="tripinfo_50" vType="DEFAULT_VEHTYPE" vaporized=""/>
    <tripinfo id="115" depart="115.00" departLane="7345542_0" departPos="5.10" departSpeed="0.00" departDelay="0.00" arrival="176.00" arrivalLane="128931504#5_0" arrivalPos="61.31" arrivalSpeed="18.16" duration="61.00" routeLength="533.45" waitSteps="3" rerouteNo="0" devices="tripinfo_115" vType="DEFAULT_VEHTYPE" vaporized=""/>
    <tripinfo id="1" depart="1.00" departLane="33581445#0_0" departPos="5.10" departSpeed="0.00" departDelay="0.00" arrival="178.00" arrivalLane="7345542_0" arrivalPos="282.97" arrivalSpeed="20.97" duration="177.00" routeLength="1032.82" waitSteps="75" rerouteNo="0" devices="tripinfo_1" vType="DEFAULT_VEHTYPE" vaporized=""/>
    <tripinfo id="125" depart="125.00" departLane="-19897790_0" departPos="5.10" departSpeed="0.00" departDelay="0.00" arrival="179.00" arrivalLane="-7655234#4_0" arrivalPos="134.73" arrivalSpeed="13.23" duration="54.00" routeLength="569.03" waitSteps="0" rerouteNo="0" devices="tripinfo_125" vType="DEFAULT_VEHTYPE" vaporized=""/>
    <tripinfo id="65" depart="67.00" departLane="7653578#2_0" departPos="5.10" departSpeed="0.00" departDelay="2.00" arrival="181.00" arrivalLane="-19897787#3_0" arrivalPos="35.82" arrivalSpeed="13.25" duration="114.00" routeLength="1130.40" waitSteps="16" rerouteNo="0" devices="tripinfo_65" vType="DEFAULT_VEHTYPE" vaporized=""/>
    <tripinfo id="0" depart="0.00" departLane="7345536#0_0" departPos="5.10" departSpeed="0.00" departDelay="0.00" arrival="182.00" arrivalLane="8100173#4_0" arrivalPos="268.36" arrivalSpeed="7.31" duration="182.00" routeLength="1011.51" waitSteps="60" rerouteNo="0" devices="tripinfo_0" vType="DEFAULT_VEHTYPE" vaporized=""/>
    <tripinfo id="75" depart="75.00" departLane="-207908664#1_0" departPos="5.10" departSpeed="0.00" departDelay="0.00" arrival="183.00" arrivalLane="5936381#0_0" arrivalPos="136.35" arrivalSpeed="22.13" duration="108.00" routeLength="1430.60" waitSteps="0" rerouteNo="0" devices="tripinfo_75" vType="DEFAULT_VEHTYPE" vaporized=""/>
    <tripinfo id="43" depart="43.00" departLane="7653575#2_0" departPos="5.10" departSpeed="0.00" departDelay="0.00" arrival="183.00" arrivalLane="-30835643_0" arrivalPos="60.52" arrivalSpeed="12.91" duration="140.00" routeLength="983.61" waitSteps="43" rerouteNo="0" devices="tripinfo_43" vType="DEFAULT_VEHTYPE" vaporized=""/>
    <tripinfo id="22" depart="22.00" departLane="124327153_0" departPos="5.10" departSpeed="0.00" departDelay="0.00" arrival="183.00" arrivalLane="7917439#5_0" arrivalPos="7.80" arrivalSpeed="11.21" duration="161.00" routeLength="303.49" waitSteps="113" rerouteNo="0" devices="tripinfo_22" vType="DEFAULT_VEHTYPE" vaporized=""/>
    <tripinfo id="101" depart="101.00" departLane="-7917435#0_0" departPos="5.10" departSpeed="0.00" departDelay="0.00" arrival="183.00" arrivalLane="-19897787#4_0" arrivalPos="26.87" arrivalSpeed="12.17" duration="82.00" routeLength="615.21" waitSteps="14" rerouteNo="0" devices="tripinfo_101" vType="DEFAULT_VEHTYPE" vaporized=""/>
    <tripinfo id="80" depart="80.00" departLane="7345542_0" departPos="5.10" departSpeed="0.00" departDelay="0.00" arrival="192.00" arrivalLane="-130801488#9_0" arrivalPos="109.07" arrivalSpeed="13.56" duration="112.00" routeLength="758.47" waitSteps="32" rerouteNo="0" devices="tripinfo_80" vType="DEFAULT_VEHTYPE" vaporized=""/>
    <tripinfo id="24" depart="24.00" departLane="207728319#5_0" departPos="5.10" departSpeed="0.00" departDelay="0.00" arrival="193.00" arrivalLane="-7345562_0" arrivalPos="290.73" arrivalSpeed="21.22" duration="169.00" routeLength="813.04" waitSteps="94" rerouteNo="0" devices="tripinfo_24" vType="DEFAULT_VEHTYPE" vaporized=""/>
    <tripinfo id="49" depart="49.00" departLane="207210792#1_0" departPos="5.10" departSpeed="0.00" departDelay="0.00" arrival="198.00" arrivalLane="-130801488#7_0" arrivalPos="40.71" arrivalSpeed="12.97" duration="149.00" routeLength="1024.64" waitSteps="29" rerouteNo="0" devices="tripinfo_49" vType="DEFAULT_VEHTYPE" vaporized=""/>
    <tripinfo id="107" depart="107.00" departLane="7917438#0_0" departPos="5.10" departSpeed="0.00" departDelay="0.00" arrival="199.00" arrivalLane="7917436_0" arrivalPos="28.76" arrivalSpeed="16.49" duration="92.00" routeLength="857.31" waitSteps="12" rerouteNo="0" devices="tripinfo_107" vType="DEFAULT_VEHTYPE" vaporized=""/>
    <tripinfo id="99" depart="99.00" departLane="128930536_0" departPos="5.10" departSpeed="0.00" departDelay="0.00" arrival="204.00" arrivalLane="126471497#1_1" arrivalPos="41.36" arrivalSpeed="19.04" duration="105.00" routeLength="795.11" waitSteps="5" rerouteNo="0" devices="tripinfo_99" vType="DEFAULT_VEHTYPE" vaporized=""/>
    <tripinfo id="150" depart="161.00" departLane="-207908664#1_0" departPos="5.10" departSpeed="0.00" departDelay="11.00" arrival="208.00" arrivalLane="4325628#4_0" arrivalPos="123.08" arrivalSpeed="13.80" duration="47.00" routeLength="721.69" waitSteps="0" rerouteNo="0" devices="tripinfo_150" vType="DEFAULT_VEHTYPE" vaporized=""/>
    <tripinfo id="57" depart="57.00" departLane="-30835718_0" departPos="5.10" departSpeed="0.00" departDelay="0.00" arrival="208.00" arrivalLane="128931504#4_0" arrivalPos="36.58" arrivalSpeed="21.54" duration="151.00" routeLength="1554.62" waitSteps="29" rerouteNo="0" devices="tripinfo_57" vType="DEFAULT_VEHTYPE" vaporized=""/>
    <tripinfo id="32" depart="32.00" departLane="25809315#3_0" departPos="5.10" departSpeed="0.00" departDelay="0.00" arrival="209.00" arrivalLane="4325634#5_0" arrivalPos="53.98" arrivalSpeed="13.65" duration="177.00" routeLength="1177.88" waitSteps="51" rerouteNo="0" devices="tripinfo_32" vType="DEFAULT_VEHTYPE" vaporized=""/>
    <tripinfo id="165" depart="168.00" departLane="7345531#0_0" departPos="5.10" departSpeed="0.00" departDelay="3.00" arrival="210.00" arrivalLane="8100173#1_0" arrivalPos="138.25" arrivalSpeed="8.19" duration="42.00" routeLength="449.82" waitSteps="2" rerouteNo="0" devices="tripinfo_165" vType="DEFAULT_VEHTYPE" vaporized=""/>
    <tripinfo id="95" depart="95.00" departLane="19898322_0" departPos="5.10" departSpeed="0.00" departDelay="0.00" arrival="210.00" arrivalLane="128931504#1_0" arrivalPos="13.24" arrivalSpeed="21.11" duration="115.00" routeLength="1462.38" waitSteps="0" rerouteNo="0" devices="tripinfo_95" vType="DEFAULT_VEHTYPE" vaporized=""/>
    <tripinfo id="131" depart="131.00" departLane="-108255160_0" departPos="5.10" departSpeed="0.00" departDelay="0.00" arrival="212.00" arrivalLane="29205083_0" arrivalPos="261.46" arrivalSpeed="12.13" duration="81.00" routeLength="932.07" waitSteps="0" rerouteNo="0" devices="tripinfo_131" vType="DEFAULT_VEHTYPE" vaporized=""/>
    <tripinfo id="55" depart="55.00" departLane="19897770#0_0" departPos="5.10" departSpeed="0.00" departDelay="0.00" arrival="216.00" arrivalLane="-207908664#0_0" arrivalPos="76.57" arrivalSpeed="21.01" duration="161.00" routeLength="1536.93" waitSteps="2" rerouteNo="0" devices="tripinfo_55" vType="DEFAULT_VEHTYPE" vaporized=""/>
    <tripinfo id="58" depart="58.00" departLane="5000056#2_0" departPos="5.10" departSpeed="0.00" departDelay="0.00" arrival="216.00" arrivalLane="-19897787#3_0" arrivalPos="33.06" arrivalSpeed="13.40" duration="158.00" routeLength="1467.58" waitSteps="48" rerouteNo="0" devices="tripinfo_58" vType="DEFAULT_VEHTYPE" vaporized=""/>
    <tripinfo id="146" depart="146.00" departLane="130096034#0_0" departPos="1.42" departSpeed="0.00" departDelay="0.00" arrival="217.00" arrivalLane="-207908670#10_0" arrivalPos="55.04" arrivalSpeed="13.54" duration="71.00" routeLength="441.90" waitSteps="12" rerouteNo="0" devices="tripinfo_146" vType="DEFAULT_VEHTYPE" vaporized=""/>
    <tripinfo id="188" depart="188.00" departLane="-29205082#1_0" departPos="5.10" departSpeed="0.00" departDelay="0.00" arrival="221.00" arrivalLane="207728318#1_0" arrivalPos="193.35" arrivalSpeed="21.04" duration="33.00" routeLength="445.13" waitSteps="0" rerouteNo="0" devices="tripinfo_188" vType="DEFAULT_VEHTYPE" vaporized=""/>
    <tripinfo id="87" depart="87.00" departLane="-30835742_0" departPos="5.10" departSpeed="0.00" departDelay="0.00" arrival="221.00" arrivalLane="207728319#5_0" arrivalPos="48.25" arrivalSpeed="12.78" duration="134.00" routeLength="1089.41" waitSteps="30" rerouteNo="0" devices="tripinfo_87" vType="DEFAULT_VEHTYPE" vaporized=""/>
    <tripinfo id="181" depart="181.00" departLane="7345531#4_0" departPos="5.10" departSpeed="0.00" departDelay="0.00" arrival="222.00" arrivalLane="-7655230#1_0" arrivalPos="74.04" arrivalSpeed="12.68" duration="41.00" routeLength="520.94" waitSteps="0" rerouteNo="0" devices="tripinfo_181" vType="DEFAULT_VEHTYPE" vaporized=""/>
    <tripinfo id="89" depart="89.00" departLane="174044130#1_0" departPos="5.10" departSpeed="0.00" departDelay="0.00" arrival="222.00" arrivalLane="-207908670#9_0" arrivalPos="42.49" arrivalSpeed="13.06" duration="133.00" routeLength="1016.76" waitSteps="18" rerouteNo="0" devices="tripinfo_89" vType="DEFAULT_VEHTYPE" vaporized=""/>
    <tripinfo id="191" depart="191.00" departLane="33581447#0_0" departPos="5.10" departSpeed="0.00" departDelay="0.00" arrival="223.00" arrivalLane="207728319#13_0" arrivalPos="80.40" arrivalSpeed="13.44" duration="32.00" routeLength="335.81" waitSteps="0" rerouteNo="0" devices="tripinfo_191" vType="DEFAULT_VEHTYPE" vaporized=""/>
    <tripinfo id="7" depart="7.00" departLane="25809315#5_0" departPos="5.10" departSpeed="0.00" departDelay="0.00" arrival="224.00" arrivalLane="7345536#1_0" arrivalPos="291.78" arrivalSpeed="12.82" duration="217.00" routeLength="1645.97" waitSteps="55" rerouteNo="0" devices="tripinfo_7" vType="DEFAULT_VEHTYPE" vaporized=""/>
    <tripinfo id="71" depart="71.00" departLane="209183487#5_0" departPos="5.10" departSpeed="0.00" departDelay="0.00" arrival="224.00" arrivalLane="128930536_0" arrivalPos="57.98" arrivalSpeed="16.88" duration="153.00" routeLength="1565.18" waitSteps="34" rerouteNo="0" devices="tripinfo_71" vType="DEFAULT_VEHTYPE" vaporized=""/>
    <tripinfo id="31" depart="31.00" departLane="30836054#1_0" departPos="5.10" departSpeed="0.00" departDelay="0.00" arrival="226.00" arrivalLane="12182447#1_0" arrivalPos="128.98" arrivalSpeed="21.88" duration="195.00" routeLength="1179.88" waitSteps="85" rerouteNo="0" devices="tripinfo_31" vType="DEFAULT_VEHTYPE" vaporized=""/>
    <tripinfo id="94" depart="94.00" departLane="23892139_0" departPos="5.10" departSpeed="0.00" departDelay="0.00" arrival="226.00" arrivalLane="33581449#0_0" arrivalPos="60.59" arrivalSpeed="21.71" duration="132.00" routeLength="1496.40" waitSteps="0" rerouteNo="0" devices="tripinfo_94" vType="DEFAULT_VEHTYPE" vaporized=""/>
    <tripinfo id="51" depart="51.00" departLane="209183483#0_0" departPos="5.10" departSpeed="0.00" departDelay="0.00" arrival="228.00" arrivalLane="38771464_0" arrivalPos="117.54" arrivalSpeed="13.01" duration="177.00" routeLength="1267.72" waitSteps="63" rerouteNo="0" devices="tripinfo_51" vType="DEFAULT_VEHTYPE" vaporized=""/>
    <tripinfo id="106" depart="106.00" departLane="174044131#2_0" departPos="5.10" departSpeed="0.00" departDelay="0.00" arrival="229.00" arrivalLane="19901338#0_0" arrivalPos="70.04" arrivalSpeed="12.90" duration="123.00" routeLength="1135.23" waitSteps="37" rerouteNo="0" devices="tripinfo_106" vType="DEFAULT_VEHTYPE" vaporized=""/>
    <tripinfo id="109" depart="109.00" departLane="181422641#0_0" departPos="5.10" departSpeed="0.00" departDelay="0.00" arrival="230.00" arrivalLane="-124327151#1_0" arrivalPos="152.01" arrivalSpeed="13.81" duration="121.00" routeLength="1037.82" waitSteps="17" rerouteNo="0" devices="tripinfo_109" vType="DEFAULT_VEHTYPE" vaporized=""/>
    <tripinfo id="70" depart="70.00" departLane="-73012193_0" departPos="5.10" departSpeed="0.00" departDelay="0.00" arrival="232.00" arrivalLane="-130096026#3_0" arrivalPos="99.01" arrivalSpeed="13.65" duration="162.00" routeLength="1385.24" waitSteps="37" rerouteNo="0" devices="tripinfo_70" vType="DEFAULT_VEHTYPE" vaporized=""/>
    <tripinfo id="139" depart="139.00" departLane="-147614712#1_0" departPos="5.10" departSpeed="0.00" departDelay="0.00" arrival="233.00" arrivalLane="-12182447#0_0" arrivalPos="33.77" arrivalSpeed="5.93" duration="94.00" routeLength="963.11" waitSteps="4" rerouteNo="0" devices="tripinfo_139" vType="DEFAULT_VEHTYPE" vaporized=""/>
    <tripinfo id="147" depart="147.00" departLane="-209183483#4_0" departPos="5.10" departSpeed="0.00" departDelay="0.00" arrival="233.00" arrivalLane="29205082#2_0" arrivalPos="40.44" arrivalSpeed="20.99" duration="86.00" routeLength="719.13" waitSteps="18" rerouteNo="0" devices="tripinfo_147" vType="DEFAULT_VEHTYPE" vaporized=""/>
    <tripinfo id="13" depart="13.00" departLane="122317544#0_0" departPos="5.10" departSpeed="0.00" departDelay="0.00" arrival="235.00" arrivalLane="113482868#1_0" arrivalPos="140.30" arrivalSpeed="13.11" duration="222.00" routeLength="1655.22" waitSteps="73" rerouteNo="0" devices="tripinfo_13" vType="DEFAULT_VEHTYPE" vaporized=""/>
    <tripinfo id="86" depart="86.00" departLane="219495257_0" departPos="5.10" departSpeed="0.00" departDelay="0.00" arrival="236.00" arrivalLane="122317544#0_0" arrivalPos="53.05" arrivalSpeed="14.73" duration="150.00" routeLength="583.33" waitSteps="81" rerouteNo="0" devices="tripinfo_86" vType="DEFAULT_VEHTYPE" vaporized=""/>
    <tripinfo id="158" depart="162.00" departLane="174044130#4_0" departPos="5.10" departSpeed="0.00" departDelay="4.00" arrival="237.00" arrivalLane="-7345550#0_0" arrivalPos="185.95" arrivalSpeed="13.17" duration="75.00" routeLength="1021.32" waitSteps="0" rerouteNo="0" devices="tripinfo_158" vType="DEFAULT_VEHTYPE" vaporized=""/>
    <tripinfo id="153" depart="153.00" departLane="7655231#2_0" departPos="5.10" departSpeed="0.00" departDelay="0.00" arrival="237.00" arrivalLane="19899042#3_0" arrivalPos="82.65" arrivalSpeed="12.92" duration="84.00" routeLength="866.41" waitSteps="0" rerouteNo="0" devices="tripinfo_153" vType="DEFAULT_VEHTYPE" vaporized=""/>
    <tripinfo id="68" depart="68.00" departLane="207908670#7_0" departPos="5.10" departSpeed="0.00" departDelay="0.00" arrival="237.00" arrivalLane="8100173#1_0" arrivalPos="139.75" arrivalSpeed="21.93" duration="169.00" routeLength="1595.06" waitSteps="18" rerouteNo="0" devices="tripinfo_68" vType="DEFAULT_VEHTYPE" vaporized=""/>
    <tripinfo id="76" depart="76.00" departLane="30835718_0" departPos="5.10" departSpeed="0.00" departDelay="0.00" arrival="238.00" arrivalLane="8080873#3_0" arrivalPos="97.51" arrivalSpeed="12.96" duration="162.00" routeLength="861.95" waitSteps="68" rerouteNo="0" devices="tripinfo_76" vType="DEFAULT_VEHTYPE" vaporized=""/>
    <tripinfo id="29" depart="29.00" departLane="25809315#1_0" departPos="5.10" departSpeed="0.00" departDelay="0.00" arrival="240.00" arrivalLane="-33581446_0" arrivalPos="102.57" arrivalSpeed="13.67" duration="211.00" routeLength="1200.44" waitSteps="68" rerouteNo="0" devices="tripinfo_29" vType="DEFAULT_VEHTYPE" vaporized=""/>
    <tripinfo id="104" depart="104.00" departLane="8100162_0" departPos="5.10" departSpeed="0.00" departDelay="0.00" arrival="242.00" arrivalLane="5936899#0_0" arrivalPos="146.76" arrivalSpeed="13.06" duration="138.00" routeLength="1127.73" waitSteps="54" rerouteNo="0" devices="tripinfo_104" vType="DEFAULT_VEHTYPE" vaporized=""/>
    <tripinfo id="140" depart="140.00" departLane="7345553#2_0" departPos="5.10" departSpeed="0.00" departDelay="0.00" arrival="244.00" arrivalLane="130801488#1_0" arrivalPos="85.80" arrivalSpeed="6.47" duration="104.00" routeLength="1322.57" waitSteps="0" rerouteNo="0" devices="tripinfo_140" vType="DEFAULT_VEHTYPE" vaporized=""/>
    <tripinfo id="27" depart="27.00" departLane="7345550#1_0" departPos="5.10" departSpeed="0.00" departDelay="0.00" arrival="244.00" arrivalLane="-7917435#3_0" arrivalPos="78.80" arrivalSpeed="13.53" duration="217.00" routeLength="2026.52" waitSteps="50" rerouteNo="0" devices="tripinfo_27" vType="DEFAULT_VEHTYPE" vaporized=""/>
    <tripinfo id="128" depart="130.00" departLane="8100169#0_0" departPos="5.10" departSpeed="0.00" departDelay="2.00" arrival="245.00" arrivalLane="4325634#8_0" arrivalPos="89.87" arrivalSpeed="13.17" duration="115.00" routeLength="736.67" waitSteps="32" rerouteNo="0" devices="tripinfo_128" vType="DEFAULT_VEHTYPE" vaporized=""/>
    <tripinfo id="14" depart="14.00" departLane="-128752307_0" departPos="5.10" departSpeed="0.00" departDelay="0.00" arrival="246.00" arrivalLane="-207728318#1_0" arrivalPos="186.49" arrivalSpeed="21.72" duration="232.00" routeLength="1586.18" waitSteps="70" rerouteNo="0" devices="tripinfo_14" vType="DEFAULT_VEHTYPE" vaporized=""/>
    <tripinfo id="61" depart="61.00" departLane="-7917431#2_0" departPos="5.10" departSpeed="0.00" departDelay="0.00" arrival="249.00" arrivalLane="-7917432_0" arrivalPos="54.26" arrivalSpeed="12.99" duration="188.00" routeLength="845.40" waitSteps="87" rerouteNo="0" devices="tripinfo_61" vType="DEFAULT_VEHTYPE" vaporized=""/>
    <tripinfo id="52" depart="52.00" departLane="130801488#5_0" departPos="5.10" departSpeed="0.00" departDelay="0.00" arrival="250.00" arrivalLane="209183482#0_1" arrivalPos="81.59" arrivalSpeed="27.48" duration="198.00" routeLength="1487.57" waitSteps="56" rerouteNo="0" devices="tripinfo_52" vType="DEFAULT_VEHTYPE" vaporized=""/>
    <tripinfo id="197" depart="197.00" departLane="-19897787#5_0" departPos="5.10" departSpeed="0.00" departDelay="0.00" arrival="250.00" arrivalLane="-7655226#0_0" arrivalPos="266.24" arrivalSpeed="20.94" duration="53.00" routeLength="708.68" waitSteps="0" rerouteNo="0" devices="tripinfo_197" vType="DEFAULT_VEHTYPE" vaporized=""/>
    <tripinfo id="177" depart="177.00" departLane="180814145#4_0" departPos="5.10" departSpeed="0.00" departDelay="0.00" arrival="251.00" arrivalLane="7655234#1_0" arrivalPos="112.06" arrivalSpeed="12.65" duration="74.00" routeLength="1021.04" waitSteps="0" rerouteNo="0" devices="tripinfo_177" vType="DEFAULT_VEHTYPE" vaporized=""/>
    <tripinfo id="111" depart="111.00" departLane="-207728319#13_0" departPos="5.10" departSpeed="0.00" departDelay="0.00" arrival="253.00" arrivalLane="-207728319#3_0" arrivalPos="66.79" arrivalSpeed="13.22" duration="142.00" routeLength="651.41" waitSteps="55" rerouteNo="0" devices="tripinfo_111" vType="DEFAULT_VEHTYPE" vaporized=""/>
    <tripinfo id="81" depart="81.00" departLane="-7655234#1_0" departPos="5.10" departSpeed="0.00" departDelay="0.00" arrival="253.00" arrivalLane="-8100173#3_0" arrivalPos="149.44" arrivalSpeed="21.86" duration="172.00" routeLength="1166.05" waitSteps="49" rerouteNo="0" devices="tripinfo_81" vType="DEFAULT_VEHTYPE" vaporized=""/>
    <tripinfo id="142" depart="142.00" departLane="128931504#4_0" departPos="5.10" departSpeed="0.00" departDelay="0.00" arrival="253.00" arrivalLane="166283486_0" arrivalPos="126.69" arrivalSpeed="13.30" duration="111.00" routeLength="1230.56" waitSteps="3" rerouteNo="0" devices="tripinfo_142" vType="DEFAULT_VEHTYPE" vaporized=""/>
    <tripinfo id="62" depart="62.00" departLane="219406890#0_0" departPos="5.10" departSpeed="0.00" departDelay="0.00" arrival="255.00" arrivalLane="-8100173#2_0" arrivalPos="87.62" arrivalSpeed="21.92" duration="193.00" routeLength="1118.37" waitSteps="75" rerouteNo="0" devices="tripinfo_62" vType="DEFAULT_VEHTYPE" vaporized=""/>
    <tripinfo id="98" depart="98.00" departLane="-7655234#0_0" departPos="5.10" departSpeed="0.00" departDelay="0.00" arrival="256.00" arrivalLane="-7345542_0" arrivalPos="279.55" arrivalSpeed="22.05" duration="158.00" routeLength="1380.32" waitSteps="53" rerouteNo="0" devices="tripinfo_98" vType="DEFAULT_VEHTYPE" vaporized=""/>
    <tripinfo id="21" depart="21.00" departLane="33581445#1_0" departPos="5.10" departSpeed="0.00" departDelay="0.00" arrival="259.00" arrivalLane="-207728319#9_0" arrivalPos="146.11" arrivalSpeed="6.36" duration="238.00" routeLength="1278.87" waitSteps="108" rerouteNo="0" devices="tripinfo_21" vType="DEFAULT_VEHTYPE" vaporized=""/>
    <tripinfo id="8" depart="8.00" departLane="-209183483#4_0" departPos="5.10" departSpeed="0.00" departDelay="0.00" arrival="259.00" arrivalLane="207210792#0_0" arrivalPos="91.93" arrivalSpeed="13.77" duration="251.00" routeLength="1543.30" waitSteps="117" rerouteNo="0" devices="tripinfo_8" vType="DEFAULT_VEHTYPE" vaporized=""/>
    <tripinfo id="199" depart="199.00" departLane="-73012193_0" departPos="5.10" departSpeed="0.00" departDelay="0.00" arrival="259.00" arrivalLane="174044130#1_0" arrivalPos="62.13" arrivalSpeed="22.05" duration="60.00" routeLength="601.89" waitSteps="0" rerouteNo="0" devices="tripinfo_199" vType="DEFAULT_VEHTYPE" vaporized=""/>
    <tripinfo id="176" depart="176.00" departLane="207728319#11_0" departPos="5.10" departSpeed="0.00" departDelay="0.00" arrival="260.00" arrivalLane="207210792#2_0" arrivalPos="165.93" arrivalSpeed="13.77" duration="84.00" routeLength="609.10" waitSteps="17" rerouteNo="0" devices="tripinfo_176" vType="DEFAULT_VEHTYPE" vaporized=""/>