<?xml version="1.0"?>

<!-- generated on lun. 07 oct. 2013 17:56:21 CEST by SUMO gui Version 0.16.0
<?xml version="1.0" encoding="UTF-8"?>

<configuration xmlns:xsi="http://www.w3.org/2001/XMLSchema-instance" xsi:noNamespaceSchemaLocation="http://sumo.sf.net/xsd/sumo-gui.exeConfiguration.xsd">

    <input>
        <net-file value="data/map.net.xml"/>
        <route-files value="data/map.rou.xml"/>
    </input>

    <output>
        <tripinfo-output value="data/maptripinfoLocal.out.xml"/>
    </output>

    <time>
        <begin value="0"/>
    </time>

    <processing>
        <time-to-teleport value="100"/>
        <lanechange.allow-swap value="true"/>
    </processing>

    <report>
        <no-step-log value="true"/>
    </report>

    <traci_server>
        <remote-port value="8813"/>
    </traci_server>

</configuration>
-->

<tripinfos>
    <tripinfo id="6" depart="6.00" departLane="-138231959#0_0" departPos="5.10" departSpeed="0.00" departDelay="0.00" arrival="70.00" arrivalLane="-119438058#5_0" arrivalPos="86.71" arrivalSpeed="12.71" duration="64.00" routeLength="735.46" waitSteps="0" rerouteNo="0" devices="tripinfo_6" vType="DEFAULT_VEHTYPE" vaporized=""/>
    <tripinfo id="4" depart="4.00" departLane="30835643_0" departPos="5.10" departSpeed="0.00" departDelay="0.00" arrival="84.00" arrivalLane="128932869#1_0" arrivalPos="43.26" arrivalSpeed="26.71" duration="80.00" routeLength="1006.92" waitSteps="0" rerouteNo="0" devices="tripinfo_4" vType="DEFAULT_VEHTYPE" vaporized=""/>
    <tripinfo id="79" depart="79.00" departLane="-33581447#1_0" departPos="5.10" departSpeed="0.00" departDelay="0.00" arrival="88.00" arrivalLane="-33581447#0_0" arrivalPos="50.13" arrivalSpeed="16.39" duration="9.00" routeLength="73.21" waitSteps="0" rerouteNo="0" devices="tripinfo_79" vType="DEFAULT_VEHTYPE" vaporized=""/>
    <tripinfo id="23" depart="23.00" departLane="60412902#1_0" departPos="5.10" departSpeed="0.00" departDelay="0.00" arrival="97.00" arrivalLane="-7395437#0_0" arrivalPos="92.70" arrivalSpeed="13.75" duration="74.00" routeLength="1081.66" waitSteps="4" rerouteNo="0" devices="tripinfo_23" vType="DEFAULT_VEHTYPE" vaporized=""/>
    <tripinfo id="37" depart="37.00" departLane="33581447#1_0" departPos="5.10" departSpeed="0.00" departDelay="0.00" arrival="100.00" arrivalLane="4325628#3_0" arrivalPos="107.87" arrivalSpeed="13.64" duration="63.00" routeLength="384.45" waitSteps="0" rerouteNo="1" devices="tripinfo_37" vType="DEFAULT_VEHTYPE" vaporized=""/>
    <tripinfo id="9" depart="9.00" departLane="33581450#2_0" departPos="5.10" departSpeed="0.00" departDelay="0.00" arrival="109.00" arrivalLane="174044127#1_0" arrivalPos="45.38" arrivalSpeed="16.38" duration="100.00" routeLength="425.56" waitSteps="56" rerouteNo="0" devices="tripinfo_9" vType="DEFAULT_VEHTYPE" vaporized=""/>
    <tripinfo id="5" depart="5.00" departLane="8080867_0" departPos="5.10" departSpeed="0.00" departDelay="0.00" arrival="110.00" arrivalLane="128930536_0" arrivalPos="49.10" arrivalSpeed="11.36" duration="105.00" routeLength="844.98" waitSteps="47" rerouteNo="0" devices="tripinfo_5" vType="DEFAULT_VEHTYPE" vaporized=""/>
    <tripinfo id="39" depart="40.00" departLane="33581447#1_0" departPos="5.10" departSpeed="0.00" departDelay="1.00" arrival="121.00" arrivalLane="120171995#4_0" arrivalPos="5.29" arrivalSpeed="13.56" duration="81.00" routeLength="10.95" waitSteps="13" rerouteNo="1" devices="tripinfo_39" vType="DEFAULT_VEHTYPE" vaporized=""/>
    <tripinfo id="10" depart="10.00" departLane="207728318#2_0" departPos="5.10" departSpeed="0.00" departDelay="0.00" arrival="134.00" arrivalLane="8100169#1_0" arrivalPos="62.60" arrivalSpeed="21.60" duration="124.00" routeLength="941.69" waitSteps="36" rerouteNo="0" devices="tripinfo_10" vType="DEFAULT_VEHTYPE" vaporized=""/>
    <tripinfo id="119" depart="119.00" departLane="119438058#5_0" departPos="5.10" departSpeed="0.00" departDelay="0.00" arrival="135.00" arrivalLane="119438058#7_0" arrivalPos="20.53" arrivalSpeed="13.74" duration="16.00" routeLength="165.44" waitSteps="0" rerouteNo="0" devices="tripinfo_119" vType="DEFAULT_VEHTYPE" vaporized=""/>
    <tripinfo id="30" depart="30.00" departLane="7917435#5_0" departPos="5.10" departSpeed="0.00" departDelay="0.00" arrival="136.00" arrivalLane="25809315#8_0" arrivalPos="9.86" arrivalSpeed="13.40" duration="106.00" routeLength="629.12" waitSteps="32" rerouteNo="0" devices="tripinfo_30" vType="DEFAULT_VEHTYPE" vaporized=""/>
    <tripinfo id="72" depart="72.00" departLane="7345550#2_0" departPos="5.10" departSpeed="0.00" departDelay="0.00" arrival="137.00" arrivalLane="-180814145#3_0" arrivalPos="98.26" arrivalSpeed="13.04" duration="65.00" routeLength="700.53" waitSteps="0" rerouteNo="1" devices="tripinfo_72" vType="DEFAULT_VEHTYPE" vaporized=""/>
    <tripinfo id="40" depart="40.00" departLane="-7345550#2_0" departPos="5.10" departSpeed="0.00" departDelay="0.00" arrival="142.00" arrivalLane="7345553#0_0" arrivalPos="166.00" arrivalSpeed="13.61" duration="102.00" routeLength="764.06" waitSteps="0" rerouteNo="2" devices="tripinfo_40" vType="DEFAULT_VEHTYPE" vaporized=""/>
    <tripinfo id="91" depart="91.00" departLane="-19897787#2_0" departPos="5.10" departSpeed="0.00" departDelay="0.00" arrival="142.00" arrivalLane="19897787#2_0" arrivalPos="19.44" arrivalSpeed="11.64" duration="51.00" routeLength="281.37" waitSteps="0" rerouteNo="1" devices="tripinfo_91" vType="DEFAULT_VEHTYPE" vaporized=""/>
    <tripinfo id="77" depart="77.00" departLane="4325634#7_0" departPos="5.10" departSpeed="0.00" departDelay="0.00" arrival="147.00" arrivalLane="7345553#1_0" arrivalPos="97.35" arrivalSpeed="13.79" duration="70.00" routeLength="821.85" waitSteps="0" rerouteNo="0" devices="tripinfo_77" vType="DEFAULT_VEHTYPE" vaporized=""/>
    <tripinfo id="26" depart="26.00" departLane="7345567#0_0" departPos="5.10" departSpeed="0.00" departDelay="0.00" arrival="147.00" arrivalLane="-8100169#2_0" arrivalPos="54.78" arrivalSpeed="13.93" duration="121.00" routeLength="333.97" waitSteps="39" rerouteNo="3" devices="tripinfo_26" vType="DEFAULT_VEHTYPE" vaporized=""/>
    <tripinfo id="19" depart="19.00" departLane="-29205082#3_0" departPos="5.10" departSpeed="0.00" departDelay="0.00" arrival="147.00" arrivalLane="122317544#1_0" arrivalPos="8.08" arrivalSpeed="15.23" duration="128.00" routeLength="802.57" waitSteps="41" rerouteNo="0" devices="tripinfo_19" vType="DEFAULT_VEHTYPE" vaporized=""/>
    <tripinfo id="18" depart="18.00" departLane="207728319#8_0" departPos="5.10" departSpeed="0.00" departDelay="0.00" arrival="148.00" arrivalLane="-207728319#7_0" arrivalPos="76.50" arrivalSpeed="13.57" duration="130.00" routeLength="470.83" waitSteps="58" rerouteNo="0" devices="tripinfo_18" vType="DEFAULT_VEHTYPE" vaporized=""/>
    <tripinfo id="88" depart="88.00" departLane="7655227#0_0" departPos="5.10" departSpeed="0.00" departDelay="0.00" arrival="149.00" arrivalLane="-181422641#0_0" arrivalPos="38.97" arrivalSpeed="13.88" duration="61.00" routeLength="711.29" waitSteps="0" rerouteNo="0" devices="tripinfo_88" vType="DEFAULT_VEHTYPE" vaporized=""/>
    <tripinfo id="41" depart="41.00" departLane="-43941802_0" departPos="5.10" departSpeed="0.00" departDelay="0.00" arrival="154.00" arrivalLane="174044130#2_0" arrivalPos="63.18" arrivalSpeed="21.86" duration="113.00" routeLength="516.02" waitSteps="55" rerouteNo="0" devices="tripinfo_41" vType="DEFAULT_VEHTYPE" vaporized=""/>
    <tripinfo id="33" depart="33.00" departLane="-7917432_0" departPos="5.10" departSpeed="0.00" departDelay="0.00" arrival="154.00" arrivalLane="7917439#5_0" arrivalPos="8.21" arrivalSpeed="6.99" duration="121.00" routeLength="362.94" waitSteps="68" rerouteNo="0" devices="tripinfo_33" vType="DEFAULT_VEHTYPE" vaporized=""/>
    <tripinfo id="46" depart="46.00" departLane="224610352_0" departPos="5.10" departSpeed="0.00" departDelay="0.00" arrival="157.00" arrivalLane="7653575#0_0" arrivalPos="64.35" arrivalSpeed="15.78" duration="111.00" routeLength="788.75" waitSteps="36" rerouteNo="0" devices="tripinfo_46" vType="DEFAULT_VEHTYPE" vaporized=""/>
    <tripinfo id="47" depart="49.00" departLane="-130801488#1_0" departPos="5.10" departSpeed="0.00" departDelay="2.00" arrival="166.00" arrivalLane="-115974092#0_0" arrivalPos="146.35" arrivalSpeed="13.37" duration="117.00" routeLength="467.54" waitSteps="14" rerouteNo="1" devices="tripinfo_47" vType="DEFAULT_VEHTYPE" vaporized=""/>
    <tripinfo id="38" depart="38.00" departLane="60412902#5_0" departPos="5.10" departSpeed="0.00" departDelay="0.00" arrival="171.00" arrivalLane="120171995#2_0" arrivalPos="11.48" arrivalSpeed="13.36" duration="133.00" routeLength="1096.41" waitSteps="27" rerouteNo="0" devices="tripinfo_38" vType="DEFAULT_VEHTYPE" vaporized=""/>
    <tripinfo id="50" depart="50.00" departLane="-7917435#0_0" departPos="5.10" departSpeed="0.00" departDelay="0.00" arrival="172.00" arrivalLane="-10361810#0_0" arrivalPos="48.44" arrivalSpeed="7.63" duration="122.00" routeLength="849.65" waitSteps="34" rerouteNo="0" devices="tripinfo_50" vType="DEFAULT_VEHTYPE" vaporized=""/>
    <tripinfo id="125" depart="125.00" departLane="-19897790_0" departPos="5.10" departSpeed="0.00" departDelay="0.00" arrival="178.00" arrivalLane="-7655234#4_0" arrivalPos="122.01" arrivalSpeed="13.79" duration="53.00" routeLength="556.31" waitSteps="0" rerouteNo="0" devices="tripinfo_125" vType="DEFAULT_VEHTYPE" vaporized=""/>
    <tripinfo id="115" depart="115.00" departLane="7345542_0" departPos="5.10" departSpeed="0.00" departDelay="0.00" arrival="178.00" arrivalLane="128931504#5_0" arrivalPos="60.96" arrivalSpeed="18.02" duration="63.00" routeLength="533.10" waitSteps="1" rerouteNo="0" devices="tripinfo_115" vType="DEFAULT_VEHTYPE" vaporized=""/>
    <tripinfo id="1" depart="1.00" departLane="33581445#0_0" departPos="5.10" departSpeed="0.00" departDelay="0.00" arrival="179.00" arrivalLane="7345542_0" arrivalPos="279.99" arrivalSpeed="21.70" duration="178.00" routeLength="771.28" waitSteps="73" rerouteNo="1" devices="tripinfo_1" vType="DEFAULT_VEHTYPE" vaporized=""/>
    <tripinfo id="0" depart="0.00" departLane="7345536#0_0" departPos="5.10" departSpeed="0.00" departDelay="0.00" arrival="182.00" arrivalLane="8100173#4_0" arrivalPos="264.20" arrivalSpeed="5.52" duration="182.00" routeLength="1007.35" waitSteps="60" rerouteNo="0" devices="tripinfo_0" vType="DEFAULT_VEHTYPE" vaporized=""/>
    <tripinfo id="65" depart="67.00" departLane="7653578#2_0" departPos="5.10" departSpeed="0.00" departDelay="2.00" arrival="182.00" arrivalLane="-19897787#3_0" arrivalPos="35.06" arrivalSpeed="13.66" duration="115.00" routeLength="1129.64" waitSteps="15" rerouteNo="0" devices="tripinfo_65" vType="DEFAULT_VEHTYPE" vaporized=""/>
    <tripinfo id="22" depart="22.00" departLane="124327153_0" departPos="5.10" departSpeed="0.00" departDelay="0.00" arrival="183.00" arrivalLane="7917439#5_0" arrivalPos="13.18" arrivalSpeed="11.86" duration="161.00" routeLength="308.87" waitSteps="113" rerouteNo="0" devices="tripinfo_22" vType="DEFAULT_VEHTYPE" vaporized=""/>
    <tripinfo id="43" depart="43.00" departLane="7653575#2_0" departPos="5.10" departSpeed="0.00" departDelay="0.00" arrival="184.00" arrivalLane="-30835643_0" arrivalPos="66.02" arrivalSpeed="13.73" duration="141.00" routeLength="989.11" waitSteps="44" rerouteNo="0" devices="tripinfo_43" vType="DEFAULT_VEHTYPE" vaporized=""/>
    <tripinfo id="101" depart="101.00" departLane="-7917435#0_0" departPos="5.10" departSpeed="0.00" departDelay="0.00" arrival="184.00" arrivalLane="-19897787#4_0" arrivalPos="19.95" arrivalSpeed="9.70" duration="83.00" routeLength="608.29" waitSteps="16" rerouteNo="0" devices="tripinfo_101" vType="DEFAULT_VEHTYPE" vaporized=""/>
    <tripinfo id="80" depart="80.00" departLane="7345542_0" departPos="5.10" departSpeed="0.00" departDelay="0.00" arrival="192.00" arrivalLane="-130801488#9_0" arrivalPos="107.67" arrivalSpeed="13.87" duration="112.00" routeLength="757.07" waitSteps="32" rerouteNo="0" devices="tripinfo_80" vType="DEFAULT_VEHTYPE" vaporized=""/>
    <tripinfo id="24" depart="24.00" departLane="207728319#5_0" departPos="5.10" departSpeed="0.00" departDelay="0.00" arrival="193.00" arrivalLane="-7345562_0" arrivalPos="298.35" arrivalSpeed="21.62" duration="169.00" routeLength="820.66" waitSteps="94" rerouteNo="0" devices="tripinfo_24" vType="DEFAULT_VEHTYPE" vaporized=""/>
    <tripinfo id="49" depart="49.00" departLane="207210792#1_0" departPos="5.10" departSpeed="0.00" departDelay="0.00" arrival="198.00" arrivalLane="-130801488#7_0" arrivalPos="48.68" arrivalSpeed="13.32" duration="149.00" routeLength="1032.61" waitSteps="30" rerouteNo="0" devices="tripinfo_49" vType="DEFAULT_VEHTYPE" vaporized=""/>
    <tripinfo id="107" depart="107.00" departLane="7917438#0_0" departPos="5.10" departSpeed="0.00" departDelay="0.00" arrival="199.00" arrivalLane="7917436_0" arrivalPos="19.93" arrivalSpeed="14.79" duration="92.00" routeLength="848.48" waitSteps="10" rerouteNo="0" devices="tripinfo_107" vType="DEFAULT_VEHTYPE" vaporized=""/>
    <tripinfo id="95" depart="95.00" departLane="19898322_0" departPos="5.10" departSpeed="0.00" departDelay="0.00" arrival="203.00" arrivalLane="128931504#1_0" arrivalPos="29.39" arrivalSpeed="21.62" duration="108.00" routeLength="1267.35" waitSteps="0" rerouteNo="2" devices="tripinfo_95" vType="DEFAULT_VEHTYPE" vaporized=""/>
    <tripinfo id="99" depart="99.00" departLane="128930536_0" departPos="5.10" departSpeed="0.00" departDelay="0.00" arrival="204.00" arrivalLane="126471497#1_1" arrivalPos="36.11" arrivalSpeed="18.80" duration="105.00" routeLength="789.86" waitSteps="8" rerouteNo="0" devices="tripinfo_99" vType="DEFAULT_VEHTYPE" vaporized=""/>
    <tripinfo id="150" depart="161.00" departLane="-207908664#1_0" departPos="5.10" departSpeed="0.00" departDelay="11.00" arrival="208.00" arrivalLane="4325628#4_0" arrivalPos="124.26" arrivalSpeed="12.61" duration="47.00" routeLength="119.16" waitSteps="0" rerouteNo="2" devices="tripinfo_150" vType="DEFAULT_VEHTYPE" vaporized=""/>
    <tripinfo id="57" depart="57.00" departLane="-30835718_0" departPos="5.10" departSpeed="0.00" departDelay="0.00" arrival="208.00" arrivalLane="128931504#4_0" arrivalPos="26.54" arrivalSpeed="22.11" duration="151.00" routeLength="240.84" waitSteps="29" rerouteNo="1" devices="tripinfo_57" vType="DEFAULT_VEHTYPE" vaporized=""/>
    <tripinfo id="165" depart="165.00" departLane="7345531#0_0" departPos="5.10" departSpeed="0.00" departDelay="0.00" arrival="211.00" arrivalLane="8100173#1_0" arrivalPos="141.86" arrivalSpeed="9.36" duration="46.00" routeLength="453.43" waitSteps="9" rerouteNo="0" devices="tripinfo_165" vType="DEFAULT_VEHTYPE" vaporized=""/>
    <tripinfo id="131" depart="131.00" departLane="-108255160_0" departPos="5.10" departSpeed="0.00" departDelay="0.00" arrival="211.00" arrivalLane="29205083_0" arrivalPos="252.82" arrivalSpeed="18.74" duration="80.00" routeLength="923.43" waitSteps="0" rerouteNo="0" devices="tripinfo_131" vType="DEFAULT_VEHTYPE" vaporized=""/>
    <tripinfo id="32" depart="32.00" departLane="25809315#3_0" departPos="5.10" departSpeed="0.00" departDelay="0.00" arrival="211.00" arrivalLane="4325634#5_0" arrivalPos="56.82" arrivalSpeed="12.79" duration="179.00" routeLength="1180.72" waitSteps="51" rerouteNo="0" devices="tripinfo_32" vType="DEFAULT_VEHTYPE" vaporized=""/>
    <tripinfo id="55" depart="55.00" departLane="19897770#0_0" departPos="5.10" departSpeed="0.00" departDelay="0.00" arrival="212.00" arrivalLane="-207908664#0_0" arrivalPos="71.55" arrivalSpeed="20.41" duration="157.00" routeLength="163.59" waitSteps="0" rerouteNo="3" devices="tripinfo_55" vType="DEFAULT_VEHTYPE" vaporized=""/>
    <tripinfo id="58" depart="58.00" departLane="5000056#2_0" departPos="5.10" departSpeed="0.00" departDelay="0.00" arrival="216.00" arrivalLane="-19897787#3_0" arrivalPos="36.95" arrivalSpeed="13.26" duration="158.00" routeLength="1471.47" waitSteps="46" rerouteNo="0" devices="tripinfo_58" vType="DEFAULT_VEHTYPE" vaporized=""/>
    <tripinfo id="146" depart="146.00" departLane="130096034#0_0" departPos="1.42" departSpeed="0.00" departDelay="0.00" arrival="217.00" arrivalLane="-207908670#10_0" arrivalPos="46.91" arrivalSpeed="13.61" duration="71.00" routeLength="433.77" waitSteps="13" rerouteNo="0" devices="tripinfo_146" vType="DEFAULT_VEHTYPE" vaporized=""/>
    <tripinfo id="87" depart="87.00" departLane="-30835742_0" departPos="5.10" departSpeed="0.00" departDelay="0.00" arrival="221.00" arrivalLane="207728319#5_0" arrivalPos="45.98" arrivalSpeed="13.67" duration="134.00" routeLength="1087.14" waitSteps="30" rerouteNo="0" devices="tripinfo_87" vType="DEFAULT_VEHTYPE" vaporized=""/>
    <tripinfo id="181" depart="181.00" departLane="7345531#4_0" departPos="5.10" departSpeed="0.00" departDelay="0.00" arrival="222.00" arrivalLane="-7655230#1_0" arrivalPos="76.25" arrivalSpeed="12.93" duration="41.00" routeLength="251.88" waitSteps="0" rerouteNo="1" devices="tripinfo_181" vType="DEFAULT_VEHTYPE" vaporized=""/>
    <tripinfo id="89" depart="89.00" departLane="174044130#1_0" departPos="5.10" departSpeed="0.00" departDelay="0.00" arrival="222.00" arrivalLane="-207908670#9_0" arrivalPos="40.21" arrivalSpeed="13.38" duration="133.00" routeLength="1014.48" waitSteps="18" rerouteNo="0" devices="tripinfo_89" vType="DEFAULT_VEHTYPE" vaporized=""/>
    <tripinfo id="188" depart="189.00" departLane="-29205082#1_0" departPos="5.10" departSpeed="0.00" departDelay="1.00" arrival="223.00" arrivalLane="207728318#1_0" arrivalPos="205.17" arrivalSpeed="21.09" duration="34.00" routeLength="456.95" waitSteps="0" rerouteNo="0" devices="tripinfo_188" vType="DEFAULT_VEHTYPE" vaporized=""/>
    <tripinfo id="191" depart="191.00" departLane="33581447#0_0" departPos="5.10" departSpeed="0.00" departDelay="0.00" arrival="223.00" arrivalLane="207728319#13_0" arrivalPos="78.91" arrivalSpeed="13.18" duration="32.00" routeLength="145.38" waitSteps="0" rerouteNo="2" devices="tripinfo_191" vType="DEFAULT_VEHTYPE" vaporized=""/>
    <tripinfo id="71" depart="71.00" departLane="209183487#5_0" departPos="5.10" departSpeed="0.00" departDelay="0.00" arrival="223.00" arrivalLane="128930536_0" arrivalPos="56.69" arrivalSpeed="18.02" duration="152.00" routeLength="1026.62" waitSteps="34" rerouteNo="3" devices="tripinfo_71" vType="DEFAULT_VEHTYPE" vaporized=""/>
    <tripinfo id="7" depart="7.00" departLane="25809315#5_0" departPos="5.10" departSpeed="0.00" departDelay="0.00" arrival="224.00" arrivalLane="7345536#1_0" arrivalPos="286.18" arrivalSpeed="13.66" duration="217.00" routeLength="1640.37" waitSteps="55" rerouteNo="0" devices="tripinfo_7" vType="DEFAULT_VEHTYPE" vaporized=""/>
    <tripinfo id="31" depart="31.00" departLane="30836054#1_0" departPos="5.10" departSpeed="0.00" departDelay="0.00" arrival="226.00" arrivalLane="12182447#1_0" arrivalPos="122.29" arrivalSpeed="21.04" duration="195.00" routeLength="810.75" waitSteps="85" rerouteNo="1" devices="tripinfo_31" vType="DEFAULT_VEHTYPE" vaporized=""/>
    <tripinfo id="51" depart="51.00" departLane="209183483#0_0" departPos="5.10" departSpeed="0.00" departDelay="0.00" arrival="228.00" arrivalLane="38771464_0" arrivalPos="125.81" arrivalSpeed="13.07" duration="177.00" routeLength="1275.99" waitSteps="63" rerouteNo="0" devices="tripinfo_51" vType="DEFAULT_VEHTYPE" vaporized=""/>
    <tripinfo id="94" depart="94.00" departLane="23892139_0" departPos="5.10" departSpeed="0.00" departDelay="0.00" arrival="228.00" arrivalLane="33581449#0_0" arrivalPos="58.10" arrivalSpeed="21.16" duration="134.00" routeLength="1493.91" waitSteps="0" rerouteNo="0" devices="tripinfo_94" vType="DEFAULT_VEHTYPE" vaporized=""/>
    <tripinfo id="109" depart="109.00" departLane="181422641#0_0" departPos="5.10" departSpeed="0.00" departDelay="0.00" arrival="230.00" arrivalLane="-124327151#1_0" arrivalPos="152.34" arrivalSpeed="13.41" duration="121.00" routeLength="1038.15" waitSteps="15" rerouteNo="0" devices="tripinfo_109" vType="DEFAULT_VEHTYPE" vaporized=""/>
    <tripinfo id="106" depart="106.00" departLane="174044131#2_0" departPos="5.10" departSpeed="0.00" departDelay="0.00" arrival="230.00" arrivalLane="19901338#0_0" arrivalPos="78.21" arrivalSpeed="12.91" duration="124.00" routeLength="1143.40" waitSteps="37" rerouteNo="0" devices="tripinfo_106" vType="DEFAULT_VEHTYPE" vaporized=""/>
    <tripinfo id="70" depart="70.00" departLane="-73012193_0" departPos="5.10" departSpeed="0.00" departDelay="0.00" arrival="231.00" arrivalLane="-130096026#3_0" arrivalPos="97.27" arrivalSpeed="13.12" duration="161.00" routeLength="1383.50" waitSteps="36" rerouteNo="0" devices="tripinfo_70" vType="DEFAULT_VEHTYPE" vaporized=""/>
    <tripinfo id="139" depart="139.00" departLane="-147614712#1_0" departPos="5.10" departSpeed="0.00" departDelay="0.00" arrival="235.00" arrivalLane="-12182447#0_0" arrivalPos="32.70" arrivalSpeed="6.98" duration="96.00" routeLength="962.04" waitSteps="6" rerouteNo="0" devices="tripinfo_139" vType="DEFAULT_VEHTYPE" vaporized=""/>
    <tripinfo id="86" depart="86.00" departLane="219495257_0" departPos="5.10" departSpeed="0.00" departDelay="0.00" arrival="235.00" arrivalLane="122317544#0_0" arrivalPos="44.51" arrivalSpeed="14.24" duration="149.00" routeLength="574.79" waitSteps="83" rerouteNo="0" devices="tripinfo_86" vType="DEFAULT_VEHTYPE" vaporized=""/>
    <tripinfo id="13" depart="13.00" departLane="122317544#0_0" departPos="5.10" departSpeed="0.00" departDelay="0.00" arrival="236.00" arrivalLane="113482868#1_0" arrivalPos="143.02" arrivalSpeed="13.82" duration="223.00" routeLength="1657.94" waitSteps="73" rerouteNo="0" devices="tripinfo_13" vType="DEFAULT_VEHTYPE" vaporized=""/>
    <tripinfo id="147" depart="147.00" departLane="-209183483#4_0" departPos="5.10" departSpeed="0.00" departDelay="0.00" arrival="236.00" arrivalLane="29205082#2_0" arrivalPos="31.04" arrivalSpeed="21.71" duration="89.00" routeLength="709.73" waitSteps="18" rerouteNo="0" devices="tripinfo_147" vType="DEFAULT_VEHTYPE" vaporized=""/>
    <tripinfo id="158" depart="162.00" departLane="174044130#4_0" departPos="5.10" departSpeed="0.00" departDelay="4.00" arrival="237.00" arrivalLane="-7345550#0_0" arrivalPos="187.65" arrivalSpeed="12.75" duration="75.00" routeLength="1023.02" waitSteps="0" rerouteNo="0" devices="tripinfo_158" vType="DEFAULT_VEHTYPE" vaporized=""/>
    <tripinfo id="68" depart="68.00" departLane="207908670#7_0" departPos="5.10" departSpeed="0.00" departDelay="0.00" arrival="237.00" arrivalLane="8100173#1_0" arrivalPos="142.51" arrivalSpeed="21.07" duration="169.00" routeLength="1597.82" waitSteps="19" rerouteNo="0" devices="tripinfo_68" vType="DEFAULT_VEHTYPE" vaporized=""/>
    <tripinfo id="76" depart="76.00" departLane="30835718_0" departPos="5.10" departSpeed="0.00" departDelay="0.00" arrival="239.00" arrivalLane="8080873#3_0" arrivalPos="106.56" arrivalSpeed="13.66" duration="163.00" routeLength="871.00" waitSteps="68" rerouteNo="0" devices="tripinfo_76" vType="DEFAULT_VEHTYPE" vaporized=""/>
    <tripinfo id="164" depart="166.00" departLane="-8100173#1_0" departPos="5.10" departSpeed="0.00" departDelay="2.00" arrival="239.00" arrivalLane="-207728319#7_0" arrivalPos="76.74" arrivalSpeed="13.13" duration="73.00" routeLength="355.10" waitSteps="0" rerouteNo="1" devices="tripinfo_164" vType="DEFAULT_VEHTYPE" vaporized=""/>
    <tripinfo id="29" depart="29.00" departLane="25809315#1_0" departPos="5.10" departSpeed="0.00" departDelay="0.00" arrival="240.00" arrivalLane="-33581446_0" arrivalPos="103.35" arrivalSpeed="13.10" duration="211.00" routeLength="1201.22" waitSteps="71" rerouteNo="0" devices="tripinfo_29" vType="DEFAULT_VEHTYPE" vaporized=""/>
    <tripinfo id="27" depart="27.00" departLane="7345550#1_0" departPos="5.10" departSpeed="0.00" departDelay="0.00" arrival="244.00" arrivalLane="-7917435#3_0" arrivalPos="75.70" arrivalSpeed="13.23" duration="217.00" routeLength="1906.36" waitSteps="51" rerouteNo="1" devices="tripinfo_27" vType="DEFAULT_VEHTYPE" vaporized=""/>
    <tripinfo id="153" depart="153.00" departLane="7655231#2_0" departPos="5.10" departSpeed="0.00" departDelay="0.00" arrival="245.00" arrivalLane="19899042#3_0" arrivalPos="84.13" arrivalSpeed="13.17" duration="92.00" routeLength="679.55" waitSteps="0" rerouteNo="1" devices="tripinfo_153" vType="DEFAULT_VEHTYPE" vaporized=""/>
    <tripinfo id="128" depart="131.00" departLane="8100169#0_0" departPos="5.10" departSpeed="0.00" departDelay="3.00" arrival="245.00" arrivalLane="4325634#8_0" arrivalPos="83.07" arrivalSpeed="12.78" duration="114.00" routeLength="729.87" waitSteps="32" rerouteNo="0" devices="tripinfo_128" vType="DEFAULT_VEHTYPE" vaporized=""/>
    <tripinfo id="75" depart="75.00" departLane="-207908664#1_0" departPos="5.10" departSpeed="0.00" departDelay="0.00" arrival="246.00" arrivalLane="5936381#0_0" arrivalPos="144.93" arrivalSpeed="21.21" duration="171.00" routeLength="1523.62" waitSteps="0" rerouteNo="3" devices="tripinfo_75" vType="DEFAULT_VEHTYPE" vaporized=""/>
    <tripinfo id="140" depart="140.00" departLane="7345553#2_0" departPos="5.10" departSpeed="0.00" departDelay="0.00" arrival="247.00" arrivalLane="130801488#1_0" arrivalPos="83.48" arrivalSpeed="9.85" duration="107.00" routeLength="1320.25" waitSteps="2" rerouteNo="0" devices="tripinfo_140" vType="DEFAULT_VEHTYPE" vaporized=""/>
    <tripinfo id="14" depart="14.00" departLane="-128752307_0" departPos="5.10" departSpeed="0.00" departDelay="0.00" arrival="247.00" arrivalLane="-207728318#1_0" arrivalPos="204.72" arrivalSpeed="21.94" duration="233.00" routeLength="1604.41" waitSteps="67" rerouteNo="0" devices="tripinfo_14" vType="DEFAULT_VEHTYPE" vaporized=""/>
    <tripinfo id="52" depart="52.00" departLane="130801488#5_0" departPos="5.10" departSpeed="0.00" departDelay="0.00" arrival="249.00" arrivalLane="209183482#0_1" arrivalPos="59.61" arrivalSpeed="27.35" duration="197.00" routeLength="1465.59" waitSteps="56" rerouteNo="0" devices="tripinfo_52" vType="DEFAULT_VEHTYPE" vaporized=""/>
    <tripinfo id="61" depart="61.00" departLane="-7917431#2_0" departPos="5.10" departSpeed="0.00" departDelay="0.00" arrival="249.00" arrivalLane="-7917432_0" arrivalPos="46.72" arrivalSpeed="13.89" duration="188.00" routeLength="651.76" waitSteps="87" rerouteNo="1" devices="tripinfo_61" vType="DEFAULT_VEHTYPE" vaporized=""/>
    <tripinfo id="197" depart="197.00" departLane="-19897787#5_0" departPos="5.10" departSpeed="0.00" departDelay="0.00" arrival="250.00" arrivalLane="-7655226#0_0" arrivalPos="282.73" arrivalSpeed="22.07" duration="53.00" routeLength="725.17" waitSteps="0" rerouteNo="0" devices="tripinfo_197" vType="DEFAULT_VEHTYPE" vaporized=""/>
    <tripinfo id="111" depart="111.00" departLane="-207728319#13_0" departPos="5.10" departSpeed="0.00" departDelay="0.00" arrival="252.00" arrivalLane="-207728319#3_0" arrivalPos="67.47" arrivalSpeed="12.90" duration="141.00" routeLength="652.09" waitSteps="51" rerouteNo="0" devices="tripinfo_111" vType="DEFAULT_VEHTYPE" vaporized=""/>
    <tripinfo id="142" depart="142.00" departLane="128931504#4_0" departPos="5.10" departSpeed="0.00" departDelay="0.00" arrival="252.00" arrivalLane="166283486_0" arrivalPos="114.34" arrivalSpeed="12.82" duration="110.00" routeLength="1218.21" waitSteps="3" rerouteNo="0" devices="tripinfo_142" vType="DEFAULT_VEHTYPE" vaporized=""/>
    <tripinfo id="177" depart="177.00" departLane="180814145#4_0" departPos="5.10" departSpeed="0.00" departDelay="0.00" arrival="253.00" arrivalLane="7655234#1_0" arrivalPos="110.33" arrivalSpeed="12.68" duration="76.00" routeLength="105.23" waitSteps="0" rerouteNo="1" devices="tripinfo_177" vType="DEFAULT_VEHTYPE" vaporized=""/>
    <tripinfo id="81" depart="81.00" departLane="-7655234#1_0" departPos="5.10" departSpeed="0.00" departDelay="0.00" arrival="254.00" arrivalLane="-8100173#3_0" arrivalPos="157.30" arrivalSpeed="21.51" duration="173.00" routeLength="1173.91" waitSteps="51" rerouteNo="0" devices="tripinfo_81" vType="DEFAULT_VEHTYPE" vaporized=""/>
    <tripinfo id="62" depart="62.00" departLane="219406890#0_0" departPos="5.10" departSpeed="0.00" departDelay="0.00" arrival="256.00" arrivalLane="-8100173#2_0" arrivalPos="94.55" arrivalSpeed="22.09" duration="194.00" routeLength="660.90" waitSteps="76" rerouteNo="1" devices="tripinfo_62" vType="DEFAULT_VEHTYPE" vaporized=""/>
    <tripinfo id="21" depart="21.00" departLane="33581445#1_0" departPos="5.10" departSpeed="0.00" departDelay="0.00" arrival="258.00" arrivalLane="-207728319#9_0" arrivalPos="141.55" arrivalSpeed="5.55" duration="237.00" routeLength="1098.88" waitSteps="107" rerouteNo="1" devices="tripinfo_21" vType="DEFAULT_VEHTYPE" vaporized=""/>
    <tripinfo id="98" depart="98.00" departLane="-7655234#0_0" departPos="5.10" departSpeed="0.00" departDelay="0.00" arrival="258.00" arrivalLane="-7345542_0" arrivalPos="290.22" arrivalSpeed="22.10" duration="160.00" routeLength="1390.99" waitSteps="52" rerouteNo="0" devices="tripinfo_98" vType="DEFAULT_VEHTYPE" vaporized=""/>
    <tripinfo id="8" depart="8.00" departLane="-209183483#4_0" departPos="5.10" departSpeed="0.00" departDelay="0.00" arrival="259.00" arrivalLane="207210792#0_0" arrivalPos="94.36" arrivalSpeed="12.91" duration="251.00" routeLength="1545.73" waitSteps="117" rerouteNo="0" devices="tripinfo_8" vType="DEFAULT_VEHTYPE" vaporized=""/>
    <tripinfo id="176" depart="176.00" departLane="207728319#11_0" departPos="5.10" departSpeed="0.00" departDelay="0.00" arrival="260.00" arrivalLane="207210792#2_0" arrivalPos="168.31" arrivalSpeed="13.40" duration="84.00" routeLength="611.48" waitSteps="13" rerouteNo="0" devices="tripinfo_176" vType="DEFAULT_VEHTYPE" vaporized=""/>