<?xml version="1.0"?>

<!-- generated on lun. 07 oct. 2013 16:48:38 CEST by SUMO gui Version 0.16.0
<?xml version="1.0" encoding="UTF-8"?>

<configuration xmlns:xsi="http://www.w3.org/2001/XMLSchema-instance" xsi:noNamespaceSchemaLocation="http://sumo.sf.net/xsd/sumo-gui.exeConfiguration.xsd">

    <input>
        <net-file value="data/map.net.xml"/>
        <route-files value="data/map.rou.xml"/>
    </input>

    <output>
        <tripinfo-output value="data/maptripinfo.out.xml"/>
    </output>

    <time>
        <begin value="0"/>
    </time>

    <processing>
        <time-to-teleport value="100"/>
        <lanechange.allow-swap value="true"/>
    </processing>

    <report>
        <no-step-log value="true"/>
    </report>

    <traci_server>
        <remote-port value="8813"/>
    </traci_server>

</configuration>
-->

<tripinfos>
    <tripinfo id="6" depart="6.00" departLane="-138231959#0_0" departPos="5.10" departSpeed="0.00" departDelay="0.00" arrival="71.00" arrivalLane="-119438058#5_0" arrivalPos="87.05" arrivalSpeed="13.15" duration="65.00" routeLength="81.95" waitSteps="0" rerouteNo="11" devices="tripinfo_6" vType="DEFAULT_VEHTYPE" vaporized=""/>
    <tripinfo id="4" depart="4.00" departLane="30835643_0" departPos="5.10" departSpeed="0.00" departDelay="0.00" arrival="84.00" arrivalLane="128932869#1_0" arrivalPos="55.47" arrivalSpeed="26.90" duration="80.00" routeLength="50.37" waitSteps="0" rerouteNo="10" devices="tripinfo_4" vType="DEFAULT_VEHTYPE" vaporized=""/>
    <tripinfo id="79" depart="79.00" departLane="-33581447#1_0" departPos="5.10" departSpeed="0.00" departDelay="0.00" arrival="87.00" arrivalLane="-33581447#0_0" arrivalPos="45.75" arrivalSpeed="15.66" duration="8.00" routeLength="40.65" waitSteps="0" rerouteNo="1" devices="tripinfo_79" vType="DEFAULT_VEHTYPE" vaporized=""/>
    <tripinfo id="23" depart="23.00" departLane="60412902#1_0" departPos="5.10" departSpeed="0.00" departDelay="0.00" arrival="97.00" arrivalLane="-7395437#0_0" arrivalPos="92.74" arrivalSpeed="13.01" duration="74.00" routeLength="87.64" waitSteps="4" rerouteNo="10" devices="tripinfo_23" vType="DEFAULT_VEHTYPE" vaporized=""/>
    <tripinfo id="37" depart="37.00" departLane="33581447#1_0" departPos="5.10" departSpeed="0.00" departDelay="0.00" arrival="101.00" arrivalLane="4325628#3_0" arrivalPos="110.24" arrivalSpeed="12.89" duration="64.00" routeLength="105.14" waitSteps="0" rerouteNo="8" devices="tripinfo_37" vType="DEFAULT_VEHTYPE" vaporized=""/>
    <tripinfo id="9" depart="9.00" departLane="33581450#2_0" departPos="5.10" departSpeed="0.00" departDelay="0.00" arrival="109.00" arrivalLane="174044127#1_0" arrivalPos="39.40" arrivalSpeed="15.13" duration="100.00" routeLength="34.30" waitSteps="57" rerouteNo="7" devices="tripinfo_9" vType="DEFAULT_VEHTYPE" vaporized=""/>
    <tripinfo id="0" depart="0.00" departLane="7345536#0_0" departPos="5.10" departSpeed="0.00" departDelay="0.00" arrival="110.00" arrivalLane="8100173#4_0" arrivalPos="279.63" arrivalSpeed="21.35" duration="110.00" routeLength="274.53" waitSteps="0" rerouteNo="9" devices="tripinfo_0" vType="DEFAULT_VEHTYPE" vaporized=""/>
    <tripinfo id="5" depart="5.00" departLane="8080867_0" departPos="5.10" departSpeed="0.00" departDelay="0.00" arrival="110.00" arrivalLane="128930536_0" arrivalPos="60.33" arrivalSpeed="15.85" duration="105.00" routeLength="55.23" waitSteps="46" rerouteNo="7" devices="tripinfo_5" vType="DEFAULT_VEHTYPE" vaporized=""/>
    <tripinfo id="39" depart="40.00" departLane="33581447#1_0" departPos="5.10" departSpeed="0.00" departDelay="1.00" arrival="121.00" arrivalLane="120171995#4_0" arrivalPos="7.40" arrivalSpeed="12.95" duration="81.00" routeLength="8.67" waitSteps="12" rerouteNo="10" devices="tripinfo_39" vType="DEFAULT_VEHTYPE" vaporized=""/>
    <tripinfo id="10" depart="10.00" departLane="207728318#2_0" departPos="5.10" departSpeed="0.00" departDelay="0.00" arrival="134.00" arrivalLane="8100169#1_0" arrivalPos="65.72" arrivalSpeed="21.37" duration="124.00" routeLength="92.97" waitSteps="35" rerouteNo="16" devices="tripinfo_10" vType="DEFAULT_VEHTYPE" vaporized=""/>
    <tripinfo id="119" depart="119.00" departLane="119438058#5_0" departPos="5.10" departSpeed="0.00" departDelay="0.00" arrival="135.00" arrivalLane="119438058#7_0" arrivalPos="22.56" arrivalSpeed="13.08" duration="16.00" routeLength="17.46" waitSteps="0" rerouteNo="2" devices="tripinfo_119" vType="DEFAULT_VEHTYPE" vaporized=""/>
    <tripinfo id="30" depart="30.00" departLane="7917435#5_0" departPos="5.10" departSpeed="0.00" departDelay="0.00" arrival="136.00" arrivalLane="25809315#8_0" arrivalPos="16.96" arrivalSpeed="13.35" duration="106.00" routeLength="11.86" waitSteps="32" rerouteNo="9" devices="tripinfo_30" vType="DEFAULT_VEHTYPE" vaporized=""/>
    <tripinfo id="72" depart="72.00" departLane="7345550#2_0" departPos="5.10" departSpeed="0.00" departDelay="0.00" arrival="139.00" arrivalLane="-180814145#3_0" arrivalPos="104.48" arrivalSpeed="13.42" duration="67.00" routeLength="99.38" waitSteps="0" rerouteNo="8" devices="tripinfo_72" vType="DEFAULT_VEHTYPE" vaporized=""/>
    <tripinfo id="40" depart="40.00" departLane="-7345550#2_0" departPos="5.10" departSpeed="0.00" departDelay="0.00" arrival="141.00" arrivalLane="7345553#0_0" arrivalPos="167.67" arrivalSpeed="13.53" duration="101.00" routeLength="162.57" waitSteps="0" rerouteNo="11" devices="tripinfo_40" vType="DEFAULT_VEHTYPE" vaporized=""/>
    <tripinfo id="91" depart="91.00" departLane="-19897787#2_0" departPos="5.10" departSpeed="0.00" departDelay="0.00" arrival="143.00" arrivalLane="19897787#2_0" arrivalPos="18.19" arrivalSpeed="11.16" duration="52.00" routeLength="13.09" waitSteps="0" rerouteNo="7" devices="tripinfo_91" vType="DEFAULT_VEHTYPE" vaporized=""/>
    <tripinfo id="77" depart="77.00" departLane="4325634#7_0" departPos="5.10" departSpeed="0.00" departDelay="0.00" arrival="146.00" arrivalLane="7345553#1_0" arrivalPos="89.31" arrivalSpeed="13.01" duration="69.00" routeLength="84.21" waitSteps="0" rerouteNo="8" devices="tripinfo_77" vType="DEFAULT_VEHTYPE" vaporized=""/>
    <tripinfo id="26" depart="26.00" departLane="7345567#0_0" departPos="5.10" departSpeed="0.00" departDelay="0.00" arrival="146.00" arrivalLane="-8100169#2_0" arrivalPos="50.09" arrivalSpeed="14.33" duration="120.00" routeLength="44.99" waitSteps="49" rerouteNo="8" devices="tripinfo_26" vType="DEFAULT_VEHTYPE" vaporized=""/>
    <tripinfo id="88" depart="88.00" departLane="7655227#0_0" departPos="5.10" departSpeed="0.00" departDelay="0.00" arrival="148.00" arrivalLane="-181422641#0_0" arrivalPos="37.34" arrivalSpeed="13.45" duration="60.00" routeLength="32.24" waitSteps="0" rerouteNo="5" devices="tripinfo_88" vType="DEFAULT_VEHTYPE" vaporized=""/>
    <tripinfo id="18" depart="18.00" departLane="207728319#8_0" departPos="5.10" departSpeed="0.00" departDelay="0.00" arrival="149.00" arrivalLane="-207728319#7_0" arrivalPos="83.14" arrivalSpeed="13.00" duration="131.00" routeLength="78.04" waitSteps="57" rerouteNo="5" devices="tripinfo_18" vType="DEFAULT_VEHTYPE" vaporized=""/>
    <tripinfo id="41" depart="41.00" departLane="-43941802_0" departPos="5.10" departSpeed="0.00" departDelay="0.00" arrival="154.00" arrivalLane="174044130#2_0" arrivalPos="56.69" arrivalSpeed="21.75" duration="113.00" routeLength="51.59" waitSteps="56" rerouteNo="6" devices="tripinfo_41" vType="DEFAULT_VEHTYPE" vaporized=""/>
    <tripinfo id="46" depart="46.00" departLane="224610352_0" departPos="5.10" departSpeed="0.00" departDelay="0.00" arrival="157.00" arrivalLane="7653575#0_0" arrivalPos="62.25" arrivalSpeed="17.19" duration="111.00" routeLength="57.15" waitSteps="36" rerouteNo="8" devices="tripinfo_46" vType="DEFAULT_VEHTYPE" vaporized=""/>
    <tripinfo id="47" depart="49.00" departLane="-130801488#1_0" departPos="5.10" departSpeed="0.00" departDelay="2.00" arrival="158.00" arrivalLane="-115974092#0_0" arrivalPos="141.98" arrivalSpeed="12.93" duration="109.00" routeLength="136.88" waitSteps="14" rerouteNo="10" devices="tripinfo_47" vType="DEFAULT_VEHTYPE" vaporized=""/>
    <tripinfo id="50" depart="50.00" departLane="-7917435#0_0" departPos="5.10" departSpeed="0.00" departDelay="0.00" arrival="166.00" arrivalLane="-10361810#0_0" arrivalPos="44.08" arrivalSpeed="7.95" duration="116.00" routeLength="38.98" waitSteps="32" rerouteNo="9" devices="tripinfo_50" vType="DEFAULT_VEHTYPE" vaporized=""/>
    <tripinfo id="38" depart="38.00" departLane="60412902#5_0" departPos="5.10" departSpeed="0.00" departDelay="0.00" arrival="171.00" arrivalLane="120171995#2_0" arrivalPos="8.00" arrivalSpeed="13.71" duration="133.00" routeLength="37.85" waitSteps="27" rerouteNo="9" devices="tripinfo_38" vType="DEFAULT_VEHTYPE" vaporized=""/>
    <tripinfo id="65" depart="67.00" departLane="7653578#2_0" departPos="5.10" departSpeed="0.00" departDelay="2.00" arrival="182.00" arrivalLane="-19897787#3_0" arrivalPos="33.76" arrivalSpeed="12.63" duration="115.00" routeLength="44.07" waitSteps="13" rerouteNo="10" devices="tripinfo_65" vType="DEFAULT_VEHTYPE" vaporized=""/>
    <tripinfo id="22" depart="22.00" departLane="124327153_0" departPos="5.10" departSpeed="0.00" departDelay="0.00" arrival="183.00" arrivalLane="7917439#5_0" arrivalPos="5.49" arrivalSpeed="10.33" duration="161.00" routeLength="18.39" waitSteps="112" rerouteNo="6" devices="tripinfo_22" vType="DEFAULT_VEHTYPE" vaporized=""/>
    <tripinfo id="101" depart="101.00" departLane="-7917435#0_0" departPos="5.10" departSpeed="0.00" departDelay="0.00" arrival="183.00" arrivalLane="-19897787#4_0" arrivalPos="18.35" arrivalSpeed="9.90" duration="82.00" routeLength="13.25" waitSteps="11" rerouteNo="6" devices="tripinfo_101" vType="DEFAULT_VEHTYPE" vaporized=""/>
    <tripinfo id="43" depart="43.00" departLane="7653575#2_0" departPos="5.10" departSpeed="0.00" departDelay="0.00" arrival="184.00" arrivalLane="-30835643_0" arrivalPos="70.34" arrivalSpeed="12.97" duration="141.00" routeLength="65.24" waitSteps="45" rerouteNo="7" devices="tripinfo_43" vType="DEFAULT_VEHTYPE" vaporized=""/>
    <tripinfo id="75" depart="75.00" departLane="-207908664#1_0" departPos="5.10" departSpeed="0.00" departDelay="0.00" arrival="185.00" arrivalLane="5936381#0_0" arrivalPos="144.06" arrivalSpeed="21.96" duration="110.00" routeLength="138.96" waitSteps="0" rerouteNo="13" devices="tripinfo_75" vType="DEFAULT_VEHTYPE" vaporized=""/>
    <tripinfo id="19" depart="19.00" departLane="-29205082#3_0" departPos="5.10" departSpeed="0.00" departDelay="0.00" arrival="188.00" arrivalLane="122317544#1_0" arrivalPos="23.95" arrivalSpeed="18.51" duration="169.00" routeLength="18.85" waitSteps="52" rerouteNo="13" devices="tripinfo_19" vType="DEFAULT_VEHTYPE" vaporized=""/>
    <tripinfo id="24" depart="24.00" departLane="207728319#5_0" departPos="5.10" departSpeed="0.00" departDelay="0.00" arrival="192.00" arrivalLane="-7345562_0" arrivalPos="289.17" arrivalSpeed="22.21" duration="168.00" routeLength="284.07" waitSteps="94" rerouteNo="5" devices="tripinfo_24" vType="DEFAULT_VEHTYPE" vaporized=""/>
    <tripinfo id="31" depart="31.00" departLane="30836054#1_0" departPos="5.10" departSpeed="0.00" departDelay="0.00" arrival="192.00" arrivalLane="12182447#1_0" arrivalPos="116.17" arrivalSpeed="21.50" duration="161.00" routeLength="111.07" waitSteps="31" rerouteNo="19" devices="tripinfo_31" vType="DEFAULT_VEHTYPE" vaporized=""/>
    <tripinfo id="32" depart="32.00" departLane="25809315#3_0" departPos="5.10" departSpeed="0.00" departDelay="0.00" arrival="200.00" arrivalLane="4325634#5_0" arrivalPos="63.04" arrivalSpeed="13.26" duration="168.00" routeLength="57.94" waitSteps="52" rerouteNo="14" devices="tripinfo_32" vType="DEFAULT_VEHTYPE" vaporized=""/>
    <tripinfo id="150" depart="160.00" departLane="-207908664#1_0" departPos="5.10" departSpeed="0.00" departDelay="10.00" arrival="207.00" arrivalLane="4325628#4_0" arrivalPos="115.98" arrivalSpeed="13.04" duration="47.00" routeLength="110.88" waitSteps="0" rerouteNo="6" devices="tripinfo_150" vType="DEFAULT_VEHTYPE" vaporized=""/>
    <tripinfo id="55" depart="55.00" departLane="19897770#0_0" departPos="5.10" departSpeed="0.00" departDelay="0.00" arrival="208.00" arrivalLane="-207908664#0_0" arrivalPos="69.23" arrivalSpeed="21.49" duration="153.00" routeLength="88.17" waitSteps="0" rerouteNo="15" devices="tripinfo_55" vType="DEFAULT_VEHTYPE" vaporized=""/>
    <tripinfo id="131" depart="131.00" departLane="-108255160_0" departPos="5.10" departSpeed="0.00" departDelay="0.00" arrival="209.00" arrivalLane="29205083_0" arrivalPos="266.47" arrivalSpeed="21.91" duration="78.00" routeLength="261.37" waitSteps="0" rerouteNo="8" devices="tripinfo_131" vType="DEFAULT_VEHTYPE" vaporized=""/>
    <tripinfo id="165" depart="168.00" departLane="7345531#0_0" departPos="5.10" departSpeed="0.00" departDelay="3.00" arrival="211.00" arrivalLane="8100173#1_0" arrivalPos="139.54" arrivalSpeed="8.55" duration="43.00" routeLength="134.44" waitSteps="3" rerouteNo="5" devices="tripinfo_165" vType="DEFAULT_VEHTYPE" vaporized=""/>
    <tripinfo id="95" depart="95.00" departLane="19898322_0" departPos="5.10" departSpeed="0.00" departDelay="0.00" arrival="211.00" arrivalLane="128931504#1_0" arrivalPos="17.75" arrivalSpeed="21.48" duration="116.00" routeLength="92.46" waitSteps="2" rerouteNo="15" devices="tripinfo_95" vType="DEFAULT_VEHTYPE" vaporized=""/>
    <tripinfo id="29" depart="29.00" departLane="25809315#1_0" departPos="5.10" departSpeed="0.00" departDelay="0.00" arrival="212.00" arrivalLane="-33581446_0" arrivalPos="108.16" arrivalSpeed="12.79" duration="183.00" routeLength="103.06" waitSteps="41" rerouteNo="20" devices="tripinfo_29" vType="DEFAULT_VEHTYPE" vaporized=""/>
    <tripinfo id="58" depart="58.00" departLane="5000056#2_0" departPos="5.10" departSpeed="0.00" departDelay="0.00" arrival="216.00" arrivalLane="-19897787#3_0" arrivalPos="36.99" arrivalSpeed="13.25" duration="158.00" routeLength="47.30" waitSteps="48" rerouteNo="15" devices="tripinfo_58" vType="DEFAULT_VEHTYPE" vaporized=""/>
    <tripinfo id="188" depart="188.00" departLane="-29205082#1_0" departPos="5.10" departSpeed="0.00" departDelay="0.00" arrival="222.00" arrivalLane="207728318#1_0" arrivalPos="200.94" arrivalSpeed="22.01" duration="34.00" routeLength="195.84" waitSteps="0" rerouteNo="3" devices="tripinfo_188" vType="DEFAULT_VEHTYPE" vaporized=""/>
    <tripinfo id="181" depart="182.00" departLane="7345531#4_0" departPos="5.10" departSpeed="0.00" departDelay="1.00" arrival="222.00" arrivalLane="-7655230#1_0" arrivalPos="72.57" arrivalSpeed="13.58" duration="40.00" routeLength="67.47" waitSteps="0" rerouteNo="4" devices="tripinfo_181" vType="DEFAULT_VEHTYPE" vaporized=""/>
    <tripinfo id="191" depart="191.00" departLane="33581447#0_0" departPos="5.10" departSpeed="0.00" departDelay="0.00" arrival="224.00" arrivalLane="207728319#13_0" arrivalPos="83.83" arrivalSpeed="13.30" duration="33.00" routeLength="78.73" waitSteps="0" rerouteNo="4" devices="tripinfo_191" vType="DEFAULT_VEHTYPE" vaporized=""/>
    <tripinfo id="80" depart="80.00" departLane="7345542_0" departPos="5.10" departSpeed="0.00" departDelay="0.00" arrival="225.00" arrivalLane="-130801488#9_0" arrivalPos="110.95" arrivalSpeed="13.14" duration="145.00" routeLength="105.85" waitSteps="63" rerouteNo="8" devices="tripinfo_80" vType="DEFAULT_VEHTYPE" vaporized=""/>
    <tripinfo id="106" depart="106.00" departLane="174044131#2_0" departPos="5.10" departSpeed="0.00" departDelay="0.00" arrival="228.00" arrivalLane="19901338#0_0" arrivalPos="78.03" arrivalSpeed="13.65" duration="122.00" routeLength="72.93" waitSteps="37" rerouteNo="15" devices="tripinfo_106" vType="DEFAULT_VEHTYPE" vaporized=""/>
    <tripinfo id="109" depart="109.00" departLane="181422641#0_0" departPos="5.10" departSpeed="0.00" departDelay="0.00" arrival="231.00" arrivalLane="-124327151#1_0" arrivalPos="152.61" arrivalSpeed="13.75" duration="122.00" routeLength="147.51" waitSteps="18" rerouteNo="10" devices="tripinfo_109" vType="DEFAULT_VEHTYPE" vaporized=""/>
    <tripinfo id="61" depart="61.00" departLane="-7917431#2_0" departPos="5.10" departSpeed="0.00" departDelay="0.00" arrival="231.00" arrivalLane="-7917432_0" arrivalPos="55.42" arrivalSpeed="13.68" duration="170.00" routeLength="50.32" waitSteps="75" rerouteNo="8" devices="tripinfo_61" vType="DEFAULT_VEHTYPE" vaporized=""/>
    <tripinfo id="71" depart="71.00" departLane="209183487#5_0" departPos="5.10" departSpeed="0.00" departDelay="0.00" arrival="231.00" arrivalLane="128930536_0" arrivalPos="53.52" arrivalSpeed="16.67" duration="160.00" routeLength="48.42" waitSteps="39" rerouteNo="13" devices="tripinfo_71" vType="DEFAULT_VEHTYPE" vaporized=""/>
    <tripinfo id="115" depart="115.00" departLane="7345542_0" departPos="5.10" departSpeed="0.00" departDelay="0.00" arrival="233.00" arrivalLane="128931504#5_0" arrivalPos="49.33" arrivalSpeed="7.00" duration="118.00" routeLength="44.23" waitSteps="51" rerouteNo="4" devices="tripinfo_115" vType="DEFAULT_VEHTYPE" vaporized=""/>
    <tripinfo id="139" depart="139.00" departLane="-147614712#1_0" departPos="5.10" departSpeed="0.00" departDelay="0.00" arrival="233.00" arrivalLane="-12182447#0_0" arrivalPos="34.06" arrivalSpeed="5.70" duration="94.00" routeLength="28.96" waitSteps="10" rerouteNo="8" devices="tripinfo_139" vType="DEFAULT_VEHTYPE" vaporized=""/>
    <tripinfo id="34" depart="34.00" departLane="-207728319#4_0" departPos="5.10" departSpeed="0.00" departDelay="0.00" arrival="233.00" arrivalLane="-209183483#4_0" arrivalPos="47.38" arrivalSpeed="13.54" duration="199.00" routeLength="42.28" waitSteps="86" rerouteNo="15" devices="tripinfo_34" vType="DEFAULT_VEHTYPE" vaporized=""/>
    <tripinfo id="76" depart="76.00" departLane="30835718_0" departPos="5.10" departSpeed="0.00" departDelay="0.00" arrival="234.00" arrivalLane="8080873#3_0" arrivalPos="93.56" arrivalSpeed="13.68" duration="158.00" routeLength="88.46" waitSteps="69" rerouteNo="8" devices="tripinfo_76" vType="DEFAULT_VEHTYPE" vaporized=""/>
    <tripinfo id="13" depart="13.00" departLane="122317544#0_0" departPos="5.10" departSpeed="0.00" departDelay="0.00" arrival="235.00" arrivalLane="113482868#1_0" arrivalPos="130.83" arrivalSpeed="13.57" duration="222.00" routeLength="125.73" waitSteps="74" rerouteNo="20" devices="tripinfo_13" vType="DEFAULT_VEHTYPE" vaporized=""/>
    <tripinfo id="153" depart="153.00" departLane="7655231#2_0" departPos="5.10" departSpeed="0.00" departDelay="0.00" arrival="235.00" arrivalLane="19899042#3_0" arrivalPos="76.48" arrivalSpeed="12.73" duration="82.00" routeLength="71.38" waitSteps="0" rerouteNo="7" devices="tripinfo_153" vType="DEFAULT_VEHTYPE" vaporized=""/>
    <tripinfo id="86" depart="86.00" departLane="219495257_0" departPos="5.10" departSpeed="0.00" departDelay="0.00" arrival="236.00" arrivalLane="122317544#0_0" arrivalPos="58.24" arrivalSpeed="16.88" duration="150.00" routeLength="53.14" waitSteps="83" rerouteNo="5" devices="tripinfo_86" vType="DEFAULT_VEHTYPE" vaporized=""/>
    <tripinfo id="147" depart="147.00" departLane="-209183483#4_0" departPos="5.10" departSpeed="0.00" departDelay="0.00" arrival="236.00" arrivalLane="29205082#2_0" arrivalPos="42.47" arrivalSpeed="22.00" duration="89.00" routeLength="37.37" waitSteps="21" rerouteNo="8" devices="tripinfo_147" vType="DEFAULT_VEHTYPE" vaporized=""/>
    <tripinfo id="158" depart="163.00" departLane="174044130#4_0" departPos="5.10" departSpeed="0.00" departDelay="5.00" arrival="239.00" arrivalLane="-7345550#0_0" arrivalPos="192.58" arrivalSpeed="13.88" duration="76.00" routeLength="187.48" waitSteps="0" rerouteNo="9" devices="tripinfo_158" vType="DEFAULT_VEHTYPE" vaporized=""/>
    <tripinfo id="140" depart="140.00" departLane="7345553#2_0" departPos="5.10" departSpeed="0.00" departDelay="0.00" arrival="246.00" arrivalLane="130801488#1_0" arrivalPos="81.83" arrivalSpeed="7.85" duration="106.00" routeLength="76.73" waitSteps="0" rerouteNo="14" devices="tripinfo_140" vType="DEFAULT_VEHTYPE" vaporized=""/>
    <tripinfo id="128" depart="130.00" departLane="8100169#0_0" departPos="5.10" departSpeed="0.00" departDelay="2.00" arrival="246.00" arrivalLane="4325634#8_0" arrivalPos="87.34" arrivalSpeed="13.69" duration="116.00" routeLength="82.24" waitSteps="32" rerouteNo="10" devices="tripinfo_128" vType="DEFAULT_VEHTYPE" vaporized=""/>
    <tripinfo id="14" depart="14.00" departLane="-128752307_0" departPos="5.10" departSpeed="0.00" departDelay="0.00" arrival="247.00" arrivalLane="-207728318#1_0" arrivalPos="205.41" arrivalSpeed="21.35" duration="233.00" routeLength="200.31" waitSteps="68" rerouteNo="17" devices="tripinfo_14" vType="DEFAULT_VEHTYPE" vaporized=""/>
    <tripinfo id="197" depart="197.00" departLane="-19897787#5_0" departPos="5.10" departSpeed="0.00" departDelay="0.00" arrival="250.00" arrivalLane="-7655226#0_0" arrivalPos="265.60" arrivalSpeed="21.65" duration="53.00" routeLength="260.50" waitSteps="0" rerouteNo="4" devices="tripinfo_197" vType="DEFAULT_VEHTYPE" vaporized=""/>
    <tripinfo id="7" depart="7.00" departLane="25809315#5_0" departPos="5.10" departSpeed="0.00" departDelay="0.00" arrival="252.00" arrivalLane="7345536#1_0" arrivalPos="288.12" arrivalSpeed="13.73" duration="245.00" routeLength="283.02" waitSteps="41" rerouteNo="20" devices="tripinfo_7" vType="DEFAULT_VEHTYPE" vaporized=""/>
    <tripinfo id="177" depart="177.00" departLane="180814145#4_0" departPos="5.10" departSpeed="0.00" departDelay="0.00" arrival="253.00" arrivalLane="7655234#1_0" arrivalPos="100.77" arrivalSpeed="13.68" duration="76.00" routeLength="95.67" waitSteps="0" rerouteNo="10" devices="tripinfo_177" vType="DEFAULT_VEHTYPE" vaporized=""/>
    <tripinfo id="154" depart="154.00" departLane="132967554#2_0" departPos="5.10" departSpeed="0.00" departDelay="0.00" arrival="254.00" arrivalLane="7345536#0_0" arrivalPos="154.52" arrivalSpeed="12.89" duration="100.00" routeLength="149.42" waitSteps="0" rerouteNo="11" devices="tripinfo_154" vType="DEFAULT_VEHTYPE" vaporized=""/>
    <tripinfo id="98" depart="98.00" departLane="-7655234#0_0" departPos="5.10" departSpeed="0.00" departDelay="0.00" arrival="260.00" arrivalLane="-7345542_0" arrivalPos="290.04" arrivalSpeed="21.80" duration="162.00" routeLength="284.94" waitSteps="47" rerouteNo="12" devices="tripinfo_98" vType="DEFAULT_VEHTYPE" vaporized=""/>
    <tripinfo id="178" depart="178.00" departLane="-180814145#6_0" departPos="5.10" departSpeed="0.00" departDelay="0.00" arrival="267.00" arrivalLane="128931504#1_0" arrivalPos="17.62" arrivalSpeed="22.15" duration="89.00" routeLength="92.33" waitSteps="0" rerouteNo="15" devices="tripinfo_178" vType="DEFAULT_VEHTYPE" vaporized=""/>
    <tripinfo id="125" depart="125.00" departLane="-19897790_0" departPos="5.10" departSpeed="0.00" departDelay="0.00" arrival="268.00" arrivalLane="-7655234#4_0" arrivalPos="127.09" arrivalSpeed="12.87" duration="143.00" routeLength="121.99" waitSteps="43" rerouteNo="9" devices="tripinfo_125" vType="DEFAULT_VEHTYPE" vaporized=""/>
    <tripinfo id="20" depart="20.00" departLane="33519832#1_0" departPos="5.10" departSpeed="0.00" departDelay="0.00" arrival="269.00" arrivalLane="119440078#0_0" arrivalPos="52.16" arrivalSpeed="19.40" duration="249.00" routeLength="47.06" waitSteps="65" rerouteNo="25" devices="tripinfo_20" vType="DEFAULT_VEHTYPE" vaporized=""/>
    <tripinfo id="59" depart="59.00" departLane="-130096026#3_0" departPos="5.10" departSpeed="0.00" departDelay="0.00" arrival="270.00" arrivalLane="5000056#3_0" arrivalPos="63.51" arrivalSpeed="13.62" duration="211.00" routeLength="58.41" waitSteps="13" rerouteNo="20" devices="tripinfo_59" vType="DEFAULT_VEHTYPE" vaporized=""/>
    <tripinfo id="132" depart="132.00" departLane="-19898322_0" departPos="5.10" departSpeed="0.00" departDelay="0.00" arrival="271.00" arrivalLane="7917438#0_0" arrivalPos="225.17" arrivalSpeed="12.95" duration="139.00" routeLength="220.07" waitSteps="1" rerouteNo="16" devices="tripinfo_132" vType="DEFAULT_VEHTYPE" vaporized=""/>
    <tripinfo id="151" depart="151.00" departLane="209183483#6_0" departPos="5.10" departSpeed="0.00" departDelay="0.00" arrival="272.00" arrivalLane="8080868#1_0" arrivalPos="54.14" arrivalSpeed="22.02" duration="121.00" routeLength="49.04" waitSteps="3" rerouteNo="14" devices="tripinfo_151" vType="DEFAULT_VEHTYPE" vaporized=""/>
    <tripinfo id="96" depart="96.00" departLane="-7395441_0" departPos="5.10" departSpeed="0.00" departDelay="0.00" arrival="273.00" arrivalLane="120171995#1_0" arrivalPos="42.61" arrivalSpeed="13.36" duration="177.00" routeLength="37.51" waitSteps="32" rerouteNo="12" devices="tripinfo_96" vType="DEFAULT_VEHTYPE" vaporized=""/>
    <tripinfo id="138" depart="138.00" departLane="180814145#5_0" departPos="5.10" departSpeed="0.00" departDelay="0.00" arrival="277.00" arrivalLane="174044131#1_0" arrivalPos="71.45" arrivalSpeed="21.83" duration="139.00" routeLength="66.35" waitSteps="30" rerouteNo="14" devices="tripinfo_138" vType="DEFAULT_VEHTYPE" vaporized=""/>
    <tripinfo id="15" depart="15.00" departLane="-130801488#7_0" departPos="5.10" departSpeed="0.00" departDelay="0.00" arrival="277.00" arrivalLane="30835753_0" arrivalPos="49.64" arrivalSpeed="13.31" duration="262.00" routeLength="44.54" waitSteps="155" rerouteNo="11" devices="tripinfo_15" vType="DEFAULT_VEHTYPE" vaporized=""/>
    <tripinfo id="81" depart="81.00" departLane="-7655234#1_0" departPos="5.10" departSpeed="0.00" departDelay="0.00" arrival="279.00" arrivalLane="-8100173#3_0" arrivalPos="148.53" arrivalSpeed="21.51" duration="198.00" routeLength="143.43" waitSteps="68" rerouteNo="13" devices="tripinfo_81" vType="DEFAULT_VEHTYPE" vaporized=""/>
    <tripinfo id="103" depart="103.00" departLane="-130096032#0_0" departPos="5.10" departSpeed="0.00" departDelay="0.00" arrival="283.00" arrivalLane="-147614712#0_0" arrivalPos="42.37" arrivalSpeed="12.80" duration="180.00" routeLength="37.27" waitSteps="70" rerouteNo="16" devices="tripinfo_103" vType="DEFAULT_VEHTYPE" vaporized=""/>
    <tripinfo id="44" depart="44.00" departLane="7345550#1_0" departPos="5.10" departSpeed="0.00" departDelay="0.00" arrival="286.00" arrivalLane="119438059#0_0" arrivalPos="105.88" arrivalSpeed="21.79" duration="242.00" routeLength="100.78" waitSteps="34" rerouteNo="24" devices="tripinfo_44" vType="DEFAULT_VEHTYPE" vaporized=""/>
    <tripinfo id="185" depart="189.00" departLane="-8100173#2_0" departPos="5.10" departSpeed="0.00" departDelay="4.00" arrival="292.00" arrivalLane="7917438#3_0" arrivalPos="92.77" arrivalSpeed="12.63" duration="103.00" routeLength="87.67" waitSteps="3" rerouteNo="12" devices="tripinfo_185" vType="DEFAULT_VEHTYPE" vaporized=""/>
    <tripinfo id="100" depart="100.00" departLane="207728319#2_0" departPos="5.10" departSpeed="0.00" departDelay="0.00" arrival="297.00" arrivalLane="19901338#0_0" arrivalPos="74.85" arrivalSpeed="13.71" duration="197.00" routeLength="69.75" waitSteps="70" rerouteNo="20" devices="tripinfo_100" vType="DEFAULT_VEHTYPE" vaporized=""/>
    <tripinfo id="87" depart="87.00" departLane="-30835742_0" departPos="5.10" departSpeed="0.00" departDelay="0.00" arrival="297.00" arrivalLane="207728319#5_0" arrivalPos="55.60" arrivalSpeed="13.03" duration="210.00" routeLength="50.50" waitSteps="64" rerouteNo="18" devices="tripinfo_87" vType="DEFAULT_VEHTYPE" vaporized=""/>
    <tripinfo id="175" depart="175.00" departLane="7655230#2_0" departPos="5.10" departSpeed="0.00" departDelay="0.00" arrival="302.00" arrivalLane="209183487#4_1" arrivalPos="119.64" arrivalSpeed="27.26" duration="127.00" routeLength="114.54" waitSteps="44" rerouteNo="8" devices="tripinfo_175" vType="DEFAULT_VEHTYPE" vaporized=""/>
    <tripinfo id="97" depart="97.00" departLane="-130801488#7_0" departPos="5.10" departSpeed="0.00" departDelay="0.00" arrival="303.00" arrivalLane="-207728318#1_0" arrivalPos="198.83" arrivalSpeed="21.34" duration="206.00" routeLength="193.73" waitSteps="81" rerouteNo="15" devices="tripinfo_97" vType="DEFAULT_VEHTYPE" vaporized=""/>
    <tripinfo id="156" depart="156.00" departLane="128931504#0_0" departPos="5.10" departSpeed="0.00" departDelay="0.00" arrival="303.00" arrivalLane="119438058#3_0" arrivalPos="71.06" arrivalSpeed="12.60" duration="147.00" routeLength="65.96" waitSteps="37" rerouteNo="12" devices="tripinfo_156" vType="DEFAULT_VEHTYPE" vaporized=""/>
    <tripinfo id="118" depart="118.00" departLane="-30835742_0" departPos="5.10" departSpeed="0.00" departDelay="0.00" arrival="304.00" arrivalLane="-166283486_0" arrivalPos="122.70" arrivalSpeed="13.74" duration="186.00" routeLength="117.60" waitSteps="31" rerouteNo="19" devices="tripinfo_118" vType="DEFAULT_VEHTYPE" vaporized=""/>
    <tripinfo id="184" depart="184.00" departLane="7655230#2_0" departPos="5.10" departSpeed="0.00" departDelay="0.00" arrival="307.00" arrivalLane="-8080873#1_0" arrivalPos="91.94" arrivalSpeed="13.04" duration="123.00" routeLength="86.84" waitSteps="33" rerouteNo="7" devices="tripinfo_184" vType="DEFAULT_VEHTYPE" vaporized=""/>
    <tripinfo id="56" depart="56.00" departLane="-7345542_0" departPos="5.10" departSpeed="0.00" departDelay="0.00" arrival="308.00" arrivalLane="-207728320_0" arrivalPos="41.56" arrivalSpeed="6.30" duration="252.00" routeLength="36.46" waitSteps="102" rerouteNo="15" devices="tripinfo_56" vType="DEFAULT_VEHTYPE" vaporized=""/>
    <tripinfo id="120" depart="120.00" departLane="7917438#0_0" departPos="5.10" departSpeed="0.00" departDelay="0.00" arrival="312.00" arrivalLane="-131133582#2_0" arrivalPos="43.66" arrivalSpeed="13.14" duration="192.00" routeLength="38.56" waitSteps="36" rerouteNo="28" devices="tripinfo_120" vType="DEFAULT_VEHTYPE" vaporized=""/>