<?xml version="1.0"?>

<!-- generated on mer. 16 oct. 2013 18:23:01 CEST by SUMO gui Version 0.16.0
<?xml version="1.0" encoding="UTF-8"?>

<configuration xmlns:xsi="http://www.w3.org/2001/XMLSchema-instance" xsi:noNamespaceSchemaLocation="http://sumo.sf.net/xsd/sumo-gui.exeConfiguration.xsd">

    <input>
        <net-file value="data/map.net.xml"/>
        <route-files value="data/map.rou.xml"/>
        <additional-files value="data/poi.add.xml"/>
    </input>

    <output>
        <tripinfo-output value="data/maptripinfo.out.xml"/>
    </output>

    <time>
        <begin value="0"/>
    </time>

    <processing>
        <time-to-teleport value="100"/>
        <lanechange.allow-swap value="true"/>
    </processing>

    <report>
        <no-step-log value="true"/>
    </report>

    <traci_server>
        <remote-port value="8813"/>
    </traci_server>

</configuration>
-->

<tripinfos>
    <tripinfo id="17" depart="17.00" departLane="-207908670#3_0" departPos="5.10" departSpeed="0.00" departDelay="0.00" arrival="57.00" arrivalLane="128930533_0" arrivalPos="43.79" arrivalSpeed="14.16" duration="40.00" routeLength="38.69" waitSteps="24" rerouteNo="40" devices="tripinfo_17" vType="DEFAULT_VEHTYPE" vaporized=""/>
    <tripinfo id="52" depart="52.00" departLane="8080867_0" departPos="5.10" departSpeed="0.00" departDelay="0.00" arrival="74.00" arrivalLane="38771464_0" arrivalPos="119.37" arrivalSpeed="13.50" duration="22.00" routeLength="244.74" waitSteps="0" rerouteNo="0" devices="tripinfo_52" vType="DEFAULT_VEHTYPE" vaporized=""/>
    <tripinfo id="22" depart="22.00" departLane="207908670#3_0" departPos="5.10" departSpeed="0.00" departDelay="0.00" arrival="85.00" arrivalLane="126471497#11_1" arrivalPos="127.26" arrivalSpeed="26.48" duration="63.00" routeLength="856.82" waitSteps="0" rerouteNo="0" devices="tripinfo_22" vType="DEFAULT_VEHTYPE" vaporized=""/>
    <tripinfo id="28" depart="28.00" departLane="207728319#11_0" departPos="5.10" departSpeed="0.00" departDelay="0.00" arrival="95.00" arrivalLane="174044130#0_0" arrivalPos="72.30" arrivalSpeed="17.55" duration="67.00" routeLength="720.38" waitSteps="0" rerouteNo="0" devices="tripinfo_28" vType="DEFAULT_VEHTYPE" vaporized=""/>
    <tripinfo id="36" depart="36.00" departLane="-207908670#9_0" departPos="5.10" departSpeed="0.00" departDelay="0.00" arrival="100.00" arrivalLane="-150882376_0" arrivalPos="111.82" arrivalSpeed="13.43" duration="64.00" routeLength="106.72" waitSteps="0" rerouteNo="64" devices="tripinfo_36" vType="DEFAULT_VEHTYPE" vaporized=""/>
    <tripinfo id="41" depart="41.00" departLane="130801488#3_0" departPos="5.10" departSpeed="0.00" departDelay="0.00" arrival="114.00" arrivalLane="126471497#1_1" arrivalPos="45.46" arrivalSpeed="22.13" duration="73.00" routeLength="40.36" waitSteps="3" rerouteNo="73" devices="tripinfo_41" vType="DEFAULT_VEHTYPE" vaporized=""/>
    <tripinfo id="32" depart="32.00" departLane="-19897787#4_0" departPos="5.10" departSpeed="0.00" departDelay="0.00" arrival="129.00" arrivalLane="19899042#2_0" arrivalPos="98.65" arrivalSpeed="12.89" duration="97.00" routeLength="1110.71" waitSteps="0" rerouteNo="0" devices="tripinfo_32" vType="DEFAULT_VEHTYPE" vaporized=""/>
    <tripinfo id="37" depart="37.00" departLane="108255160_0" departPos="5.10" departSpeed="0.00" departDelay="0.00" arrival="129.00" arrivalLane="124327153_0" arrivalPos="35.47" arrivalSpeed="12.47" duration="92.00" routeLength="30.37" waitSteps="6" rerouteNo="92" devices="tripinfo_37" vType="DEFAULT_VEHTYPE" vaporized=""/>
    <tripinfo id="66" depart="66.00" departLane="5936383_0" departPos="5.10" departSpeed="0.00" departDelay="0.00" arrival="133.00" arrivalLane="33519832#0_0" arrivalPos="80.43" arrivalSpeed="18.96" duration="67.00" routeLength="780.61" waitSteps="0" rerouteNo="0" devices="tripinfo_66" vType="DEFAULT_VEHTYPE" vaporized=""/>
    <tripinfo id="16" depart="16.00" departLane="25809315#5_0" departPos="5.10" departSpeed="0.00" departDelay="0.00" arrival="135.00" arrivalLane="-8080873#1_0" arrivalPos="97.09" arrivalSpeed="12.84" duration="119.00" routeLength="91.99" waitSteps="37" rerouteNo="119" devices="tripinfo_16" vType="DEFAULT_VEHTYPE" vaporized=""/>
    <tripinfo id="48" depart="48.00" departLane="174044130#2_0" departPos="5.10" departSpeed="0.00" departDelay="0.00" arrival="135.00" arrivalLane="5936381#1_0" arrivalPos="68.99" arrivalSpeed="21.87" duration="87.00" routeLength="1229.66" waitSteps="0" rerouteNo="0" devices="tripinfo_48" vType="DEFAULT_VEHTYPE" vaporized=""/>
    <tripinfo id="35" depart="35.00" departLane="207210790_0" departPos="5.10" departSpeed="0.00" departDelay="0.00" arrival="138.00" arrivalLane="-131133582#0_0" arrivalPos="83.53" arrivalSpeed="13.33" duration="103.00" routeLength="78.43" waitSteps="27" rerouteNo="103" devices="tripinfo_35" vType="DEFAULT_VEHTYPE" vaporized=""/>
    <tripinfo id="5" depart="5.00" departLane="-8080873#3_0" departPos="5.10" departSpeed="0.00" departDelay="0.00" arrival="141.00" arrivalLane="174044126#0_0" arrivalPos="382.21" arrivalSpeed="13.27" duration="136.00" routeLength="377.11" waitSteps="21" rerouteNo="136" devices="tripinfo_5" vType="DEFAULT_VEHTYPE" vaporized=""/>
    <tripinfo id="2" depart="2.00" departLane="-30836054#2_0" departPos="5.10" departSpeed="0.00" departDelay="0.00" arrival="141.00" arrivalLane="25809315#0_0" arrivalPos="89.40" arrivalSpeed="13.70" duration="139.00" routeLength="84.30" waitSteps="41" rerouteNo="139" devices="tripinfo_2" vType="DEFAULT_VEHTYPE" vaporized=""/>
    <tripinfo id="1" depart="1.00" departLane="7917438#0_0" departPos="5.10" departSpeed="0.00" departDelay="0.00" arrival="145.00" arrivalLane="181422641#1_0" arrivalPos="94.12" arrivalSpeed="21.97" duration="144.00" routeLength="1617.56" waitSteps="9" rerouteNo="0" devices="tripinfo_1" vType="DEFAULT_VEHTYPE" vaporized=""/>
    <tripinfo id="39" depart="41.00" departLane="-130096026#3_0" departPos="5.10" departSpeed="0.00" departDelay="2.00" arrival="146.00" arrivalLane="130096034#2_0" arrivalPos="34.87" arrivalSpeed="13.12" duration="105.00" routeLength="562.96" waitSteps="35" rerouteNo="0" devices="tripinfo_39" vType="DEFAULT_VEHTYPE" vaporized=""/>
    <tripinfo id="57" depart="57.00" departLane="7655227#1_0" departPos="5.10" departSpeed="0.00" departDelay="0.00" arrival="152.00" arrivalLane="-10361810#0_0" arrivalPos="44.96" arrivalSpeed="7.24" duration="95.00" routeLength="39.86" waitSteps="0" rerouteNo="95" devices="tripinfo_57" vType="DEFAULT_VEHTYPE" vaporized=""/>
    <tripinfo id="99" depart="99.00" departLane="60412902#5_0" departPos="5.10" departSpeed="0.00" departDelay="0.00" arrival="153.00" arrivalLane="180814145#6_0" arrivalPos="64.33" arrivalSpeed="12.73" duration="54.00" routeLength="59.23" waitSteps="3" rerouteNo="54" devices="tripinfo_99" vType="DEFAULT_VEHTYPE" vaporized=""/>
    <tripinfo id="51" depart="51.00" departLane="147614715_0" departPos="5.10" departSpeed="0.00" departDelay="0.00" arrival="154.00" arrivalLane="126471497#12_1" arrivalPos="80.37" arrivalSpeed="26.73" duration="103.00" routeLength="1386.30" waitSteps="0" rerouteNo="0" devices="tripinfo_51" vType="DEFAULT_VEHTYPE" vaporized=""/>
    <tripinfo id="47" depart="47.00" departLane="-207728319#11_0" departPos="5.10" departSpeed="0.00" departDelay="0.00" arrival="161.00" arrivalLane="207728320_0" arrivalPos="48.66" arrivalSpeed="13.82" duration="114.00" routeLength="43.56" waitSteps="7" rerouteNo="114" devices="tripinfo_47" vType="DEFAULT_VEHTYPE" vaporized=""/>
    <tripinfo id="85" depart="85.00" departLane="207728319#5_0" departPos="5.10" departSpeed="0.00" departDelay="0.00" arrival="167.00" arrivalLane="-119438058#1_0" arrivalPos="44.44" arrivalSpeed="13.26" duration="82.00" routeLength="631.43" waitSteps="21" rerouteNo="0" devices="tripinfo_85" vType="DEFAULT_VEHTYPE" vaporized=""/>
    <tripinfo id="67" depart="67.00" departLane="-73012193_0" departPos="5.10" departSpeed="0.00" departDelay="0.00" arrival="168.00" arrivalLane="7345562_0" arrivalPos="283.79" arrivalSpeed="21.68" duration="101.00" routeLength="278.69" waitSteps="25" rerouteNo="101" devices="tripinfo_67" vType="DEFAULT_VEHTYPE" vaporized=""/>
    <tripinfo id="8" depart="8.00" departLane="7655231#1_0" departPos="5.10" departSpeed="0.00" departDelay="0.00" arrival="169.00" arrivalLane="-119438058#6_0" arrivalPos="74.59" arrivalSpeed="12.82" duration="161.00" routeLength="1449.63" waitSteps="29" rerouteNo="0" devices="tripinfo_8" vType="DEFAULT_VEHTYPE" vaporized=""/>
    <tripinfo id="53" depart="53.00" departLane="8100173#1_0" departPos="5.10" departSpeed="0.00" departDelay="0.00" arrival="170.00" arrivalLane="4325634#4_0" arrivalPos="85.59" arrivalSpeed="13.16" duration="117.00" routeLength="1001.84" waitSteps="33" rerouteNo="0" devices="tripinfo_53" vType="DEFAULT_VEHTYPE" vaporized=""/>
    <tripinfo id="31" depart="31.00" departLane="-29205082#0_0" departPos="5.10" departSpeed="0.00" departDelay="0.00" arrival="173.00" arrivalLane="174044126#0_0" arrivalPos="383.47" arrivalSpeed="12.62" duration="142.00" routeLength="1077.98" waitSteps="48" rerouteNo="0" devices="tripinfo_31" vType="DEFAULT_VEHTYPE" vaporized=""/>
    <tripinfo id="68" depart="68.00" departLane="19901610_0" departPos="5.10" departSpeed="0.00" departDelay="0.00" arrival="176.00" arrivalLane="-7655231#0_0" arrivalPos="295.86" arrivalSpeed="12.82" duration="108.00" routeLength="1284.55" waitSteps="0" rerouteNo="0" devices="tripinfo_68" vType="DEFAULT_VEHTYPE" vaporized=""/>
    <tripinfo id="89" depart="89.00" departLane="174044130#1_0" departPos="5.10" departSpeed="0.00" departDelay="0.00" arrival="180.00" arrivalLane="19897770#1_0" arrivalPos="94.19" arrivalSpeed="12.65" duration="91.00" routeLength="885.47" waitSteps="0" rerouteNo="0" devices="tripinfo_89" vType="DEFAULT_VEHTYPE" vaporized=""/>
    <tripinfo id="40" depart="40.00" departLane="7345550#2_0" departPos="5.10" departSpeed="0.00" departDelay="0.00" arrival="181.00" arrivalLane="-8080873#2_0" arrivalPos="133.03" arrivalSpeed="12.91" duration="141.00" routeLength="127.93" waitSteps="15" rerouteNo="141" devices="tripinfo_40" vType="DEFAULT_VEHTYPE" vaporized=""/>
    <tripinfo id="14" depart="14.00" departLane="119438059#0_0" departPos="5.10" departSpeed="0.00" departDelay="0.00" arrival="189.00" arrivalLane="23892090#1_0" arrivalPos="107.56" arrivalSpeed="12.70" duration="175.00" routeLength="102.46" waitSteps="42" rerouteNo="175" devices="tripinfo_14" vType="DEFAULT_VEHTYPE" vaporized=""/>
    <tripinfo id="62" depart="62.00" departLane="-7917435#3_0" departPos="5.10" departSpeed="0.00" departDelay="0.00" arrival="190.00" arrivalLane="19897787#4_0" arrivalPos="20.83" arrivalSpeed="12.90" duration="128.00" routeLength="15.73" waitSteps="17" rerouteNo="128" devices="tripinfo_62" vType="DEFAULT_VEHTYPE" vaporized=""/>
    <tripinfo id="38" depart="38.00" departLane="130801488#7_0" departPos="5.10" departSpeed="0.00" departDelay="0.00" arrival="191.00" arrivalLane="-33581450#0_0" arrivalPos="134.23" arrivalSpeed="21.92" duration="153.00" routeLength="129.13" waitSteps="47" rerouteNo="153" devices="tripinfo_38" vType="DEFAULT_VEHTYPE" vaporized=""/>
</tripinfos>
