<?xml version="1.0"?>

<!-- generated on mer. 16 oct. 2013 17:41:13 CEST by SUMO gui Version 0.16.0
<?xml version="1.0" encoding="UTF-8"?>

<configuration xmlns:xsi="http://www.w3.org/2001/XMLSchema-instance" xsi:noNamespaceSchemaLocation="http://sumo.sf.net/xsd/sumo-gui.exeConfiguration.xsd">

    <input>
        <net-file value="data/RondPoint.net.xml"/>
        <route-files value="data/RondPoint.rou.xml,data/RondPointBus.rou.xml"/>
        <additional-files value="data/RondPoint.det.xml"/>
    </input>

    <output>
        <tripinfo-output value="data/RondPointtripinfo.out.xml"/>
    </output>

    <time>
        <begin value="0"/>
    </time>

    <processing>
        <time-to-teleport value="200"/>
        <lanechange.allow-swap value="true"/>
    </processing>

    <report>
        <no-step-log value="true"/>
    </report>

    <traci_server>
        <remote-port value="8813"/>
    </traci_server>

</configuration>
-->

<tripinfos>
    <tripinfo id="VehicleFlowNorthToWest_0" depart="0.00" departLane="28925528_0" departPos="5.10" departSpeed="0.00" departDelay="0.00" arrival="36.00" arrivalLane="105490271_0" arrivalPos="218.42" arrivalSpeed="13.60" duration="36.00" routeLength="339.89" waitSteps="0" rerouteNo="0" devices="tripinfo_VehicleFlowNorthToWest_0" vType="Vehicle" vaporized=""/>
    <tripinfo id="VehicleFlowWestToSouth_0" depart="0.00" departLane="229259796_0" departPos="5.10" departSpeed="0.00" departDelay="0.00" arrival="44.00" arrivalLane="239331353_0" arrivalPos="139.25" arrivalSpeed="13.76" duration="44.00" routeLength="343.31" waitSteps="0" rerouteNo="0" devices="tripinfo_VehicleFlowWestToSouth_0" vType="Vehicle" vaporized=""/>
    <tripinfo id="VehicleFlowEastToNorth_0" depart="0.00" departLane="-1365_0" departPos="5.10" departSpeed="0.00" departDelay="0.00" arrival="47.00" arrivalLane="105490284_0" arrivalPos="116.26" arrivalSpeed="13.66" duration="47.00" routeLength="467.88" waitSteps="0" rerouteNo="0" devices="tripinfo_VehicleFlowEastToNorth_0" vType="Vehicle" vaporized=""/>
    <tripinfo id="VehicleFlowSouthToEast_0" depart="0.00" departLane="239331354_0" departPos="5.10" departSpeed="0.00" departDelay="0.00" arrival="48.00" arrivalLane="105490279_0" arrivalPos="362.02" arrivalSpeed="13.50" duration="48.00" routeLength="500.10" waitSteps="0" rerouteNo="0" devices="tripinfo_VehicleFlowSouthToEast_0" vType="Vehicle" vaporized=""/>
    <tripinfo id="VehicleFlowEastToWest_0" depart="5.00" departLane="-1365_0" departPos="5.10" departSpeed="0.00" departDelay="3.00" arrival="62.00" arrivalLane="105490271_0" arrivalPos="222.65" arrivalSpeed="13.59" duration="57.00" routeLength="602.72" waitSteps="0" rerouteNo="0" devices="tripinfo_VehicleFlowEastToWest_0" vType="Vehicle" vaporized=""/>
    <tripinfo id="BusFlowLeft_Right_0" depart="10.00" departLane="-240120122_0" departPos="17.10" departSpeed="0.00" departDelay="0.00" arrival="71.00" arrivalLane="239331353_0" arrivalPos="147.06" arrivalSpeed="16.38" duration="61.00" routeLength="467.26" waitSteps="0" rerouteNo="0" devices="tripinfo_BusFlowLeft_Right_0" vType="Bus" vaporized=""/>
    <tripinfo id="VehicleFlowSouthToNorth_0" depart="5.00" departLane="239331354_0" departPos="5.10" departSpeed="0.00" departDelay="3.00" arrival="75.00" arrivalLane="105490284_0" arrivalPos="114.25" arrivalSpeed="13.57" duration="70.00" routeLength="281.69" waitSteps="21" rerouteNo="0" devices="tripinfo_VehicleFlowSouthToNorth_0" vType="Vehicle" vaporized=""/>
    <tripinfo id="VehicleFlowWestToEast_0" depart="5.00" departLane="229259796_0" departPos="5.10" departSpeed="0.00" departDelay="3.00" arrival="76.00" arrivalLane="105490279_0" arrivalPos="356.88" arrivalSpeed="13.73" duration="71.00" routeLength="580.78" waitSteps="0" rerouteNo="0" devices="tripinfo_VehicleFlowWestToEast_0" vType="Vehicle" vaporized=""/>
    <tripinfo id="VehicleFlowNorthToSouth_0" depart="5.00" departLane="28925528_0" departPos="5.10" departSpeed="0.00" departDelay="3.00" arrival="85.00" arrivalLane="239331353_0" arrivalPos="143.92" arrivalSpeed="14.28" duration="80.00" routeLength="283.11" waitSteps="30" rerouteNo="0" devices="tripinfo_VehicleFlowNorthToSouth_0" vType="Vehicle" vaporized=""/>
    <tripinfo id="VehicleFlowEastToSouth_0" depart="10.00" departLane="-1365_0" departPos="5.10" departSpeed="0.00" departDelay="6.00" arrival="96.00" arrivalLane="239331353_0" arrivalPos="136.57" arrivalSpeed="13.76" duration="86.00" routeLength="534.36" waitSteps="10" rerouteNo="0" devices="tripinfo_VehicleFlowEastToSouth_0" vType="Vehicle" vaporized=""/>
    <tripinfo id="VehicleFlowNorthToWest_1" depart="26.00" departLane="28925528_0" departPos="5.10" departSpeed="0.00" departDelay="0.00" arrival="99.00" arrivalLane="105490271_0" arrivalPos="226.10" arrivalSpeed="13.70" duration="73.00" routeLength="347.57" waitSteps="22" rerouteNo="0" devices="tripinfo_VehicleFlowNorthToWest_1" vType="Vehicle" vaporized=""/>
    <tripinfo id="VehicleFlowNorthToWest_2" depart="52.00" departLane="28925528_0" departPos="5.10" departSpeed="0.00" departDelay="1.00" arrival="100.00" arrivalLane="105490271_1" arrivalPos="215.19" arrivalSpeed="13.53" duration="48.00" routeLength="336.66" waitSteps="0" rerouteNo="0" devices="tripinfo_VehicleFlowNorthToWest_2" vType="Vehicle" vaporized=""/>
    <tripinfo id="VehicleFlowNorthToWest_3" depart="77.00" departLane="28925528_0" departPos="5.10" departSpeed="0.00" departDelay="0.00" arrival="113.00" arrivalLane="105490271_0" arrivalPos="218.11" arrivalSpeed="13.68" duration="36.00" routeLength="339.58" waitSteps="0" rerouteNo="0" devices="tripinfo_VehicleFlowNorthToWest_3" vType="Vehicle" vaporized=""/>
    <tripinfo id="BusFlowRight_Right_0" depart="35.00" departLane="-1277_0" departPos="17.10" departSpeed="0.00" departDelay="0.00" arrival="113.00" arrivalLane="105490284_0" arrivalPos="114.68" arrivalSpeed="13.85" duration="78.00" routeLength="448.98" waitSteps="0" rerouteNo="0" devices="tripinfo_BusFlowRight_Right_0" vType="Bus" vaporized=""/>
    <tripinfo id="VehicleFlowSouthToEast_1" depart="51.00" departLane="239331354_0" departPos="5.10" departSpeed="0.00" departDelay="0.00" arrival="114.00" arrivalLane="105490279_0" arrivalPos="362.02" arrivalSpeed="13.63" duration="63.00" routeLength="500.10" waitSteps="0" rerouteNo="0" devices="tripinfo_VehicleFlowSouthToEast_1" vType="Vehicle" vaporized=""/>
    <tripinfo id="BusFlowLeft_0" depart="0.00" departLane="-240120122_0" departPos="17.10" departSpeed="0.00" departDelay="0.00" arrival="129.00" arrivalLane="--1277_0" arrivalPos="329.71" arrivalSpeed="5.42" duration="129.00" routeLength="681.19" waitSteps="6" rerouteNo="0" devices="tripinfo_BusFlowLeft_0" vType="Bus" vaporized=""/>
    <tripinfo id="BusFlowRight_0" depart="20.00" departLane="-1277_0" departPos="17.10" departSpeed="0.00" departDelay="0.00" arrival="131.00" arrivalLane="240120122_0" arrivalPos="336.08" arrivalSpeed="13.54" duration="111.00" routeLength="687.27" waitSteps="0" rerouteNo="0" devices="tripinfo_BusFlowRight_0" vType="Bus" vaporized=""/>
    <tripinfo id="VehicleFlowWestToNorth_0" depart="10.00" departLane="229259796_0" departPos="5.10" departSpeed="0.00" departDelay="6.00" arrival="138.00" arrivalLane="105490284_0" arrivalPos="119.25" arrivalSpeed="13.73" duration="128.00" routeLength="372.51" waitSteps="64" rerouteNo="0" devices="tripinfo_VehicleFlowWestToNorth_0" vType="Vehicle" vaporized=""/>
    <tripinfo id="VehicleFlowWestToNorth_1" depart="30.00" departLane="229259796_0" departPos="5.10" departSpeed="0.00" departDelay="9.00" arrival="140.00" arrivalLane="105490284_0" arrivalPos="109.62" arrivalSpeed="13.84" duration="110.00" routeLength="362.88" waitSteps="40" rerouteNo="0" devices="tripinfo_VehicleFlowWestToNorth_1" vType="Vehicle" vaporized=""/>
    <tripinfo id="VehicleFlowNorthToSouth_1" depart="67.00" departLane="28925528_0" departPos="5.10" departSpeed="0.00" departDelay="0.00" arrival="141.00" arrivalLane="239331353_0" arrivalPos="145.90" arrivalSpeed="14.53" duration="74.00" routeLength="285.09" waitSteps="24" rerouteNo="0" devices="tripinfo_VehicleFlowNorthToSouth_1" vType="Vehicle" vaporized=""/>
    <tripinfo id="VehicleFlowWestToNorth_2" depart="60.00" departLane="229259796_0" departPos="5.10" departSpeed="0.00" departDelay="22.00" arrival="149.00" arrivalLane="105490284_0" arrivalPos="114.32" arrivalSpeed="13.34" duration="89.00" routeLength="367.58" waitSteps="14" rerouteNo="0" devices="tripinfo_VehicleFlowWestToNorth_2" vType="Vehicle" vaporized=""/>
    <tripinfo id="VehicleFlowSouthToWest_0" depart="10.00" departLane="239331354_0" departPos="5.10" departSpeed="0.00" departDelay="6.00" arrival="152.00" arrivalLane="105490271_0" arrivalPos="225.96" arrivalSpeed="13.81" duration="142.00" routeLength="421.85" waitSteps="81" rerouteNo="0" devices="tripinfo_VehicleFlowSouthToWest_0" vType="Vehicle" vaporized=""/>
    <tripinfo id="VehicleFlowNorthToEast_0" depart="10.00" departLane="28925528_0" departPos="5.10" departSpeed="0.00" departDelay="6.00" arrival="153.00" arrivalLane="105490279_0" arrivalPos="363.77" arrivalSpeed="13.49" duration="143.00" routeLength="522.80" waitSteps="62" rerouteNo="0" devices="tripinfo_VehicleFlowNorthToEast_0" vType="Vehicle" vaporized=""/>
    <tripinfo id="VehicleFlowNorthToEast_1" depart="47.00" departLane="28925528_0" departPos="5.10" departSpeed="0.00" departDelay="0.00" arrival="157.00" arrivalLane="105490279_0" arrivalPos="353.67" arrivalSpeed="13.60" duration="110.00" routeLength="512.70" waitSteps="32" rerouteNo="0" devices="tripinfo_VehicleFlowNorthToEast_1" vType="Vehicle" vaporized=""/>
    <tripinfo id="VehicleFlowEastToNorth_1" depart="26.00" departLane="-1365_0" departPos="5.10" departSpeed="0.00" departDelay="5.00" arrival="158.00" arrivalLane="105490284_0" arrivalPos="114.24" arrivalSpeed="13.54" duration="132.00" routeLength="465.86" waitSteps="70" rerouteNo="0" devices="tripinfo_VehicleFlowEastToNorth_1" vType="Vehicle" vaporized=""/>
    <tripinfo id="VehicleFlowEastToNorth_2" depart="47.00" departLane="-1365_0" departPos="5.10" departSpeed="0.00" departDelay="5.00" arrival="160.00" arrivalLane="105490284_0" arrivalPos="113.57" arrivalSpeed="13.55" duration="113.00" routeLength="465.19" waitSteps="52" rerouteNo="0" devices="tripinfo_VehicleFlowEastToNorth_2" vType="Vehicle" vaporized=""/>
    <tripinfo id="VehicleFlowEastToNorth_3" depart="67.00" departLane="-1365_0" departPos="5.10" departSpeed="0.00" departDelay="4.00" arrival="165.00" arrivalLane="105490284_0" arrivalPos="116.64" arrivalSpeed="13.74" duration="98.00" routeLength="468.26" waitSteps="33" rerouteNo="0" devices="tripinfo_VehicleFlowEastToNorth_3" vType="Vehicle" vaporized=""/>
    <tripinfo id="VehicleFlowNorthToWest_5" depart="129.00" departLane="28925528_0" departPos="5.10" departSpeed="0.00" departDelay="0.00" arrival="168.00" arrivalLane="105490271_1" arrivalPos="217.10" arrivalSpeed="13.68" duration="39.00" routeLength="338.57" waitSteps="0" rerouteNo="0" devices="tripinfo_VehicleFlowNorthToWest_5" vType="Vehicle" vaporized=""/>
    <tripinfo id="VehicleFlowEastToNorth_4" depart="87.00" departLane="-1365_0" departPos="5.10" departSpeed="0.00" departDelay="3.00" arrival="168.00" arrivalLane="105490284_0" arrivalPos="120.16" arrivalSpeed="13.59" duration="81.00" routeLength="471.78" waitSteps="14" rerouteNo="0" devices="tripinfo_VehicleFlowEastToNorth_4" vType="Vehicle" vaporized=""/>
    <tripinfo id="VehicleFlowNorthToWest_4" depart="103.00" departLane="28925528_0" departPos="5.10" departSpeed="0.00" departDelay="0.00" arrival="169.00" arrivalLane="105490271_0" arrivalPos="221.05" arrivalSpeed="13.70" duration="66.00" routeLength="342.52" waitSteps="15" rerouteNo="0" devices="tripinfo_VehicleFlowNorthToWest_4" vType="Vehicle" vaporized=""/>
    <tripinfo id="VehicleFlowEastToNorth_5" depart="113.00" departLane="-1365_0" departPos="5.10" departSpeed="0.00" departDelay="8.00" arrival="177.00" arrivalLane="105490284_0" arrivalPos="113.90" arrivalSpeed="13.03" duration="64.00" routeLength="465.52" waitSteps="0" rerouteNo="0" devices="tripinfo_VehicleFlowEastToNorth_5" vType="Vehicle" vaporized=""/>
    <tripinfo id="VehicleFlowSouthToNorth_1" depart="122.00" departLane="239331354_0" departPos="5.10" departSpeed="0.00" departDelay="0.00" arrival="188.00" arrivalLane="105490284_0" arrivalPos="114.98" arrivalSpeed="13.63" duration="66.00" routeLength="282.42" waitSteps="6" rerouteNo="0" devices="tripinfo_VehicleFlowSouthToNorth_1" vType="Vehicle" vaporized=""/>
    <tripinfo id="VehicleFlowSouthToEast_2" depart="103.00" departLane="239331354_0" departPos="5.10" departSpeed="0.00" departDelay="0.00" arrival="190.00" arrivalLane="105490279_0" arrivalPos="353.13" arrivalSpeed="13.73" duration="87.00" routeLength="491.21" waitSteps="25" rerouteNo="0" devices="tripinfo_VehicleFlowSouthToEast_2" vType="Vehicle" vaporized=""/>
    <tripinfo id="VehicleFlowSouthToEast_3" depart="154.00" departLane="239331354_0" departPos="5.10" departSpeed="0.00" departDelay="0.00" arrival="202.00" arrivalLane="105490279_0" arrivalPos="357.26" arrivalSpeed="13.81" duration="48.00" routeLength="495.34" waitSteps="0" rerouteNo="0" devices="tripinfo_VehicleFlowSouthToEast_3" vType="Vehicle" vaporized=""/>
    <tripinfo id="VehicleFlowEastToWest_1" depart="15.00" departLane="-1365_0" departPos="5.10" departSpeed="0.00" departDelay="5.00" arrival="204.00" arrivalLane="105490271_0" arrivalPos="213.43" arrivalSpeed="13.62" duration="189.00" routeLength="593.50" waitSteps="103" rerouteNo="0" devices="tripinfo_VehicleFlowEastToWest_1" vType="Vehicle" vaporized=""/>
    <tripinfo id="VehicleFlowEastToNorth_6" depart="134.00" departLane="-1365_0" departPos="5.10" departSpeed="0.00" departDelay="8.00" arrival="210.00" arrivalLane="105490284_0" arrivalPos="119.36" arrivalSpeed="13.75" duration="76.00" routeLength="470.98" waitSteps="14" rerouteNo="0" devices="tripinfo_VehicleFlowEastToNorth_6" vType="Vehicle" vaporized=""/>
    <tripinfo id="VehicleFlowEastToNorth_7" depart="154.00" departLane="-1365_0" departPos="5.10" departSpeed="0.00" departDelay="7.00" arrival="211.00" arrivalLane="105490284_0" arrivalPos="110.35" arrivalSpeed="13.82" duration="57.00" routeLength="461.97" waitSteps="0" rerouteNo="0" devices="tripinfo_VehicleFlowEastToNorth_7" vType="Vehicle" vaporized=""/>
    <tripinfo id="VehicleFlowEastToWest_2" depart="21.00" departLane="-1365_0" departPos="5.10" departSpeed="0.00" departDelay="2.00" arrival="217.00" arrivalLane="105490271_0" arrivalPos="223.98" arrivalSpeed="13.63" duration="196.00" routeLength="604.05" waitSteps="98" rerouteNo="0" devices="tripinfo_VehicleFlowEastToWest_2" vType="Vehicle" vaporized=""/>
    <tripinfo id="VehicleFlowEastToWest_4" depart="41.00" departLane="-1365_0" departPos="5.10" departSpeed="0.00" departDelay="5.00" arrival="219.00" arrivalLane="105490271_0" arrivalPos="225.91" arrivalSpeed="13.51" duration="178.00" routeLength="605.98" waitSteps="79" rerouteNo="0" devices="tripinfo_VehicleFlowEastToWest_4" vType="Vehicle" vaporized=""/>
    <tripinfo id="VehicleFlowEastToNorth_8" depart="175.00" departLane="-1365_0" departPos="5.10" departSpeed="0.00" departDelay="8.00" arrival="220.00" arrivalLane="105490284_0" arrivalPos="109.41" arrivalSpeed="13.50" duration="45.00" routeLength="461.03" waitSteps="0" rerouteNo="0" devices="tripinfo_VehicleFlowEastToNorth_8" vType="Vehicle" vaporized=""/>
    <tripinfo id="VehicleFlowEastToWest_5" depart="52.00" departLane="-1365_0" departPos="5.10" departSpeed="0.00" departDelay="8.00" arrival="225.00" arrivalLane="105490271_0" arrivalPos="213.66" arrivalSpeed="13.68" duration="173.00" routeLength="593.73" waitSteps="72" rerouteNo="0" devices="tripinfo_VehicleFlowEastToWest_5" vType="Vehicle" vaporized=""/>
    <tripinfo id="VehicleFlowWestToEast_1" depart="15.00" departLane="229259796_0" departPos="5.10" departSpeed="0.00" departDelay="8.00" arrival="229.00" arrivalLane="105490279_0" arrivalPos="364.94" arrivalSpeed="13.57" duration="214.00" routeLength="588.84" waitSteps="128" rerouteNo="0" devices="tripinfo_VehicleFlowWestToEast_1" vType="Vehicle" vaporized=""/>
    <tripinfo id="VehicleFlowWestToEast_2" depart="20.00" departLane="229259796_0" departPos="5.10" departSpeed="0.00" departDelay="8.00" arrival="231.00" arrivalLane="105490279_0" arrivalPos="358.79" arrivalSpeed="13.60" duration="211.00" routeLength="582.69" waitSteps="118" rerouteNo="0" devices="tripinfo_VehicleFlowWestToEast_2" vType="Vehicle" vaporized=""/>
    <tripinfo id="VehicleFlowEastToWest_3" depart="31.00" departLane="-1365_0" departPos="5.10" departSpeed="0.00" departDelay="4.00" arrival="233.00" arrivalLane="105490271_0" arrivalPos="225.68" arrivalSpeed="13.78" duration="202.00" routeLength="605.75" waitSteps="99" rerouteNo="0" devices="tripinfo_VehicleFlowEastToWest_3" vType="Vehicle" vaporized=""/>
    <tripinfo id="VehicleFlowWestToEast_3" depart="25.00" departLane="229259796_0" departPos="5.10" departSpeed="0.00" departDelay="8.00" arrival="234.00" arrivalLane="105490279_0" arrivalPos="363.03" arrivalSpeed="13.81" duration="209.00" routeLength="586.93" waitSteps="120" rerouteNo="0" devices="tripinfo_VehicleFlowWestToEast_3" vType="Vehicle" vaporized=""/>
    <tripinfo id="VehicleFlowWestToNorth_3" depart="80.00" departLane="229259796_0" departPos="5.10" departSpeed="0.00" departDelay="25.00" arrival="241.00" arrivalLane="105490284_0" arrivalPos="122.53" arrivalSpeed="13.79" duration="161.00" routeLength="375.79" waitSteps="79" rerouteNo="0" devices="tripinfo_VehicleFlowWestToNorth_3" vType="Vehicle" vaporized=""/>
    <tripinfo id="VehicleFlowWestToNorth_4" depart="111.00" departLane="229259796_0" departPos="5.10" departSpeed="0.00" departDelay="39.00" arrival="243.00" arrivalLane="105490284_0" arrivalPos="112.77" arrivalSpeed="13.62" duration="132.00" routeLength="366.03" waitSteps="44" rerouteNo="0" devices="tripinfo_VehicleFlowWestToNorth_4" vType="Vehicle" vaporized=""/>
    <tripinfo id="VehicleFlowWestToEast_4" depart="35.00" departLane="229259796_0" departPos="5.10" departSpeed="0.00" departDelay="13.00" arrival="245.00" arrivalLane="105490279_0" arrivalPos="356.02" arrivalSpeed="13.69" duration="210.00" routeLength="579.92" waitSteps="110" rerouteNo="0" devices="tripinfo_VehicleFlowWestToEast_4" vType="Vehicle" vaporized=""/>
    <tripinfo id="VehicleFlowEastToSouth_1" depart="36.00" departLane="-1365_0" departPos="5.10" departSpeed="0.00" departDelay="2.00" arrival="247.00" arrivalLane="239331353_0" arrivalPos="132.87" arrivalSpeed="13.40" duration="211.00" routeLength="530.66" waitSteps="80" rerouteNo="0" devices="tripinfo_VehicleFlowEastToSouth_1" vType="Vehicle" vaporized=""/>
    <tripinfo id="VehicleFlowWestToNorth_5" depart="137.00" departLane="229259796_0" departPos="5.10" departSpeed="0.00" departDelay="47.00" arrival="251.00" arrivalLane="105490284_0" arrivalPos="111.18" arrivalSpeed="13.26" duration="114.00" routeLength="364.44" waitSteps="26" rerouteNo="0" devices="tripinfo_VehicleFlowWestToNorth_5" vType="Vehicle" vaporized=""/>
    <tripinfo id="VehicleFlowEastToWest_7" depart="62.00" departLane="-1365_0" departPos="5.10" departSpeed="0.00" departDelay="1.00" arrival="257.00" arrivalLane="105490271_1" arrivalPos="214.56" arrivalSpeed="13.81" duration="195.00" routeLength="594.63" waitSteps="52" rerouteNo="0" devices="tripinfo_VehicleFlowEastToWest_7" vType="Vehicle" vaporized=""/>
    <tripinfo id="VehicleFlowEastToWest_6" depart="57.00" departLane="-1365_0" departPos="5.10" departSpeed="0.00" departDelay="5.00" arrival="259.00" arrivalLane="105490271_1" arrivalPos="217.10" arrivalSpeed="13.82" duration="202.00" routeLength="597.17" waitSteps="88" rerouteNo="0" devices="tripinfo_VehicleFlowEastToWest_6" vType="Vehicle" vaporized=""/>
    <tripinfo id="VehicleFlowSouthToEast_4" depart="206.00" departLane="239331354_0" departPos="5.10" departSpeed="0.00" departDelay="0.00" arrival="259.00" arrivalLane="105490279_0" arrivalPos="361.35" arrivalSpeed="13.70" duration="53.00" routeLength="499.43" waitSteps="0" rerouteNo="0" devices="tripinfo_VehicleFlowSouthToEast_4" vType="Vehicle" vaporized=""/>
    <tripinfo id="VehicleFlowEastToNorth_9" depart="200.00" departLane="-1365_0" departPos="5.10" departSpeed="0.00" departDelay="12.00" arrival="261.00" arrivalLane="105490284_0" arrivalPos="112.79" arrivalSpeed="13.37" duration="61.00" routeLength="464.41" waitSteps="1" rerouteNo="0" devices="tripinfo_VehicleFlowEastToNorth_9" vType="Vehicle" vaporized=""/>
    <tripinfo id="VehicleFlowNorthToWest_6" depart="154.00" departLane="28925528_0" departPos="5.10" departSpeed="0.00" departDelay="0.00" arrival="262.00" arrivalLane="105490271_0" arrivalPos="216.83" arrivalSpeed="13.88" duration="108.00" routeLength="338.30" waitSteps="58" rerouteNo="0" devices="tripinfo_VehicleFlowNorthToWest_6" vType="Vehicle" vaporized=""/>
    <tripinfo id="VehicleFlowEastToNorth_10" depart="215.00" departLane="-1365_0" departPos="5.10" departSpeed="0.00" departDelay="6.00" arrival="263.00" arrivalLane="105490284_0" arrivalPos="117.34" arrivalSpeed="13.77" duration="48.00" routeLength="468.96" waitSteps="0" rerouteNo="0" devices="tripinfo_VehicleFlowEastToNorth_10" vType="Vehicle" vaporized=""/>
    <tripinfo id="VehicleFlowNorthToWest_7" depart="180.00" departLane="28925528_0" departPos="5.10" departSpeed="0.00" departDelay="0.00" arrival="265.00" arrivalLane="105490271_0" arrivalPos="219.65" arrivalSpeed="13.68" duration="85.00" routeLength="341.12" waitSteps="34" rerouteNo="0" devices="tripinfo_VehicleFlowNorthToWest_7" vType="Vehicle" vaporized=""/>
    <tripinfo id="VehicleFlowEastToWest_8" depart="77.00" departLane="-1365_0" departPos="5.10" departSpeed="0.00" departDelay="8.00" arrival="273.00" arrivalLane="105490271_0" arrivalPos="213.63" arrivalSpeed="13.55" duration="196.00" routeLength="593.70" waitSteps="90" rerouteNo="0" devices="tripinfo_VehicleFlowEastToWest_8" vType="Vehicle" vaporized=""/>
    <tripinfo id="VehicleFlowEastToWest_9" depart="82.00" departLane="-1365_0" departPos="5.10" departSpeed="0.00" departDelay="4.00" arrival="276.00" arrivalLane="105490271_0" arrivalPos="223.18" arrivalSpeed="13.63" duration="194.00" routeLength="603.25" waitSteps="85" rerouteNo="0" devices="tripinfo_VehicleFlowEastToWest_9" vType="Vehicle" vaporized=""/>
    <tripinfo id="VehicleFlowEastToWest_10" depart="92.00" departLane="-1365_0" departPos="5.10" departSpeed="0.00" departDelay="6.00" arrival="281.00" arrivalLane="105490271_0" arrivalPos="214.99" arrivalSpeed="13.57" duration="189.00" routeLength="595.06" waitSteps="75" rerouteNo="0" devices="tripinfo_VehicleFlowEastToWest_10" vType="Vehicle" vaporized=""/>
    <tripinfo id="VehicleFlowEastToWest_16" depart="144.00" departLane="-1365_0" departPos="5.10" departSpeed="0.00" departDelay="7.00" arrival="289.00" arrivalLane="105490271_0" arrivalPos="222.02" arrivalSpeed="13.79" duration="145.00" routeLength="602.09" waitSteps="53" rerouteNo="0" devices="tripinfo_VehicleFlowEastToWest_16" vType="Vehicle" vaporized=""/>
    <tripinfo id="VehicleFlowWestToNorth_6" depart="162.00" departLane="229259796_0" departPos="5.10" departSpeed="0.00" departDelay="55.00" arrival="291.00" arrivalLane="105490284_0" arrivalPos="115.75" arrivalSpeed="13.76" duration="129.00" routeLength="369.01" waitSteps="53" rerouteNo="0" devices="tripinfo_VehicleFlowWestToNorth_6" vType="Vehicle" vaporized=""/>
    <tripinfo id="VehicleFlowNorthToSouth_2" depart="139.00" departLane="28925528_0" departPos="5.10" departSpeed="0.00" departDelay="6.00" arrival="295.00" arrivalLane="239331353_0" arrivalPos="132.12" arrivalSpeed="13.22" duration="156.00" routeLength="271.31" waitSteps="97" rerouteNo="0" devices="tripinfo_VehicleFlowNorthToSouth_2" vType="Vehicle" vaporized=""/>
    <tripinfo id="VehicleFlowEastToWest_13" depart="118.00" departLane="-1365_0" departPos="5.10" departSpeed="0.00" departDelay="7.00" arrival="303.00" arrivalLane="105490271_1" arrivalPos="216.24" arrivalSpeed="13.51" duration="185.00" routeLength="596.31" waitSteps="39" rerouteNo="0" devices="tripinfo_VehicleFlowEastToWest_13" vType="Vehicle" vaporized=""/>
    <tripinfo id="VehicleFlowEastToSouth_2" depart="72.00" departLane="-1365_0" departPos="5.10" departSpeed="0.00" departDelay="8.00" arrival="303.00" arrivalLane="239331353_0" arrivalPos="140.96" arrivalSpeed="14.44" duration="231.00" routeLength="538.75" waitSteps="113" rerouteNo="0" devices="tripinfo_VehicleFlowEastToSouth_2" vType="Vehicle" vaporized=""/>
    <tripinfo id="VehicleFlowNorthToEast_2" depart="90.00" departLane="28925528_0" departPos="5.10" departSpeed="0.00" departDelay="0.00" arrival="305.00" arrivalLane="105490279_0" arrivalPos="362.55" arrivalSpeed="13.79" duration="215.00" routeLength="521.58" waitSteps="125" rerouteNo="0" devices="tripinfo_VehicleFlowNorthToEast_2" vType="Vehicle" vaporized=""/>
    <tripinfo id="VehicleFlowNorthToWest_8" depart="206.00" departLane="28925528_0" departPos="5.10" departSpeed="0.00" departDelay="0.00" arrival="308.00" arrivalLane="105490271_0" arrivalPos="221.64" arrivalSpeed="13.60" duration="102.00" routeLength="343.11" waitSteps="43" rerouteNo="0" devices="tripinfo_VehicleFlowNorthToWest_8" vType="Vehicle" vaporized=""/>
    <tripinfo id="VehicleFlowNorthToWest_9" depart="231.00" departLane="28925528_0" departPos="5.10" departSpeed="0.00" departDelay="0.00" arrival="310.00" arrivalLane="105490271_0" arrivalPos="216.93" arrivalSpeed="13.66" duration="79.00" routeLength="338.40" waitSteps="29" rerouteNo="0" devices="tripinfo_VehicleFlowNorthToWest_9" vType="Vehicle" vaporized=""/>
    <tripinfo id="VehicleFlowNorthToWest_10" depart="257.00" departLane="28925528_0" departPos="5.10" departSpeed="0.00" departDelay="0.00" arrival="313.00" arrivalLane="105490271_0" arrivalPos="222.57" arrivalSpeed="13.86" duration="56.00" routeLength="344.04" waitSteps="5" rerouteNo="0" devices="tripinfo_VehicleFlowNorthToWest_10" vType="Vehicle" vaporized=""/>
    <tripinfo id="VehicleFlowNorthToEast_3" depart="134.00" departLane="28925528_0" departPos="5.10" departSpeed="0.00" departDelay="2.00" arrival="313.00" arrivalLane="105490279_0" arrivalPos="354.31" arrivalSpeed="13.81" duration="179.00" routeLength="513.34" waitSteps="92" rerouteNo="0" devices="tripinfo_VehicleFlowNorthToEast_3" vType="Vehicle" vaporized=""/>
    <tripinfo id="VehicleFlowEastToNorth_11" depart="241.00" departLane="-1365_0" departPos="5.10" departSpeed="0.00" departDelay="11.00" arrival="313.00" arrivalLane="105490284_0" arrivalPos="110.21" arrivalSpeed="13.75" duration="72.00" routeLength="461.83" waitSteps="10" rerouteNo="0" devices="tripinfo_VehicleFlowEastToNorth_11" vType="Vehicle" vaporized=""/>
    <tripinfo id="VehicleFlowEastToNorth_12" depart="262.00" departLane="-1365_0" departPos="5.10" departSpeed="0.00" departDelay="11.00" arrival="315.00" arrivalLane="105490284_0" arrivalPos="111.05" arrivalSpeed="13.57" duration="53.00" routeLength="462.67" waitSteps="0" rerouteNo="0" devices="tripinfo_VehicleFlowEastToNorth_12" vType="Vehicle" vaporized=""/>
    <tripinfo id="VehicleFlowWestToEast_5" depart="40.00" departLane="229259796_0" departPos="5.10" departSpeed="0.00" departDelay="14.00" arrival="317.00" arrivalLane="105490279_0" arrivalPos="362.10" arrivalSpeed="13.83" duration="277.00" routeLength="586.00" waitSteps="147" rerouteNo="0" devices="tripinfo_VehicleFlowWestToEast_5" vType="Vehicle" vaporized=""/>
    <tripinfo id="VehicleFlowNorthToEast_4" depart="175.00" departLane="28925528_0" departPos="5.10" departSpeed="0.00" departDelay="0.00" arrival="318.00" arrivalLane="105490279_0" arrivalPos="353.62" arrivalSpeed="13.83" duration="143.00" routeLength="512.65" waitSteps="62" rerouteNo="0" devices="tripinfo_VehicleFlowNorthToEast_4" vType="Vehicle" vaporized=""/>
    <tripinfo id="VehicleFlowNorthToWest_11" depart="283.00" departLane="28925528_0" departPos="5.10" departSpeed="0.00" departDelay="0.00" arrival="320.00" arrivalLane="105490271_0" arrivalPos="222.44" arrivalSpeed="13.88" duration="37.00" routeLength="343.91" waitSteps="0" rerouteNo="0" devices="tripinfo_VehicleFlowNorthToWest_11" vType="Vehicle" vaporized=""/>
    <tripinfo id="VehicleFlowSouthToEast_5" depart="257.00" departLane="239331354_0" departPos="5.10" departSpeed="0.00" departDelay="0.00" arrival="344.00" arrivalLane="105490279_0" arrivalPos="359.23" arrivalSpeed="13.84" duration="87.00" routeLength="497.31" waitSteps="23" rerouteNo="0" devices="tripinfo_VehicleFlowSouthToEast_5" vType="Vehicle" vaporized=""/>
    <tripinfo id="VehicleFlowEastToWest_11" depart="103.00" departLane="-1365_0" departPos="5.10" departSpeed="0.00" departDelay="9.00" arrival="345.00" arrivalLane="105490271_0" arrivalPos="215.11" arrivalSpeed="13.55" duration="242.00" routeLength="595.18" waitSteps="118" rerouteNo="0" devices="tripinfo_VehicleFlowEastToWest_11" vType="Vehicle" vaporized=""/>
    <tripinfo id="VehicleFlowSouthToNorth_2" depart="242.00" departLane="239331354_0" departPos="5.10" departSpeed="0.00" departDelay="0.00" arrival="345.00" arrivalLane="105490284_0" arrivalPos="115.39" arrivalSpeed="13.82" duration="103.00" routeLength="282.83" waitSteps="44" rerouteNo="0" devices="tripinfo_VehicleFlowSouthToNorth_2" vType="Vehicle" vaporized=""/>
    <tripinfo id="VehicleFlowNorthToSouth_3" depart="198.00" departLane="28925528_0" departPos="5.10" departSpeed="0.00" departDelay="0.00" arrival="346.00" arrivalLane="239331353_0" arrivalPos="134.38" arrivalSpeed="13.78" duration="148.00" routeLength="273.57" waitSteps="84" rerouteNo="0" devices="tripinfo_VehicleFlowNorthToSouth_3" vType="Vehicle" vaporized=""/>
    <tripinfo id="VehicleFlowWestToNorth_7" depart="227.00" departLane="229259796_0" departPos="5.10" departSpeed="0.00" departDelay="103.00" arrival="348.00" arrivalLane="105490284_0" arrivalPos="109.36" arrivalSpeed="13.47" duration="121.00" routeLength="362.62" waitSteps="44" rerouteNo="0" devices="tripinfo_VehicleFlowWestToNorth_7" vType="Vehicle" vaporized=""/>