<?xml version="1.0"?>

<!-- generated on lun. 07 oct. 2013 15:18:26 CEST by SUMO gui Version 0.16.0
<?xml version="1.0" encoding="UTF-8"?>

<configuration xmlns:xsi="http://www.w3.org/2001/XMLSchema-instance" xsi:noNamespaceSchemaLocation="http://sumo.sf.net/xsd/sumo-gui.exeConfiguration.xsd">

    <input>
        <net-file value="data/RondPoint.net.xml"/>
        <route-files value="data/RondPoint.rou.xml,data/RondPointBus.rou.xml"/>
        <additional-files value="data/RondPoint.det.xml"/>
    </input>

    <output>
        <tripinfo-output value="data/RondPointtripinfo.out.xml"/>
    </output>

    <time>
        <begin value="0"/>
    </time>

    <processing>
        <time-to-teleport value="200"/>
        <lanechange.allow-swap value="true"/>
    </processing>

    <report>
        <no-step-log value="true"/>
    </report>

    <traci_server>
        <remote-port value="8813"/>
    </traci_server>

</configuration>
-->

<tripinfos>
    <tripinfo id="VehicleFlowNorth_0" depart="12.00" departLane="28925528_0" departPos="5.10" departSpeed="0.00" departDelay="0.00" arrival="48.00" arrivalLane="105490271_0" arrivalPos="214.80" arrivalSpeed="13.54" duration="36.00" routeLength="336.27" waitSteps="0" rerouteNo="0" devices="tripinfo_VehicleFlowNorth_0" vType="Vehicle" vaporized=""/>
    <tripinfo id="BusFlowRight_Right_0" depart="0.00" departLane="-1277_0" departPos="17.10" departSpeed="0.00" departDelay="0.00" arrival="82.00" arrivalLane="105490284_0" arrivalPos="120.90" arrivalSpeed="13.60" duration="82.00" routeLength="455.20" waitSteps="0" rerouteNo="0" devices="tripinfo_BusFlowRight_Right_0" vType="Bus" vaporized=""/>
    <tripinfo id="BusFlowLeft_Right_0" depart="30.00" departLane="-240120122_0" departPos="17.10" departSpeed="0.00" departDelay="0.00" arrival="84.00" arrivalLane="239331353_0" arrivalPos="134.58" arrivalSpeed="14.67" duration="54.00" routeLength="454.78" waitSteps="0" rerouteNo="0" devices="tripinfo_BusFlowLeft_Right_0" vType="Bus" vaporized=""/>
    <tripinfo id="VehicleFlowNorth_3" depart="39.00" departLane="28925528_0" departPos="5.10" departSpeed="0.00" departDelay="0.00" arrival="97.00" arrivalLane="239331353_0" arrivalPos="143.21" arrivalSpeed="16.52" duration="58.00" routeLength="282.40" waitSteps="11" rerouteNo="0" devices="tripinfo_VehicleFlowNorth_3" vType="Vehicle" vaporized=""/>
    <tripinfo id="VehicleFlowNorth_2" depart="30.00" departLane="28925528_0" departPos="5.10" departSpeed="0.00" departDelay="0.00" arrival="98.00" arrivalLane="105490271_0" arrivalPos="222.95" arrivalSpeed="13.70" duration="68.00" routeLength="344.42" waitSteps="18" rerouteNo="0" devices="tripinfo_VehicleFlowNorth_2" vType="Vehicle" vaporized=""/>
    <tripinfo id="VehicleFlowNorth_5" depart="57.00" departLane="28925528_0" departPos="5.10" departSpeed="0.00" departDelay="0.00" arrival="99.00" arrivalLane="105490271_0" arrivalPos="213.85" arrivalSpeed="13.79" duration="42.00" routeLength="335.32" waitSteps="0" rerouteNo="0" devices="tripinfo_VehicleFlowNorth_5" vType="Vehicle" vaporized=""/>
    <tripinfo id="VehicleFlowNorth_4" depart="48.00" departLane="28925528_0" departPos="5.10" departSpeed="0.00" departDelay="0.00" arrival="100.00" arrivalLane="239331353_0" arrivalPos="136.21" arrivalSpeed="16.04" duration="52.00" routeLength="275.40" waitSteps="3" rerouteNo="0" devices="tripinfo_VehicleFlowNorth_4" vType="Vehicle" vaporized=""/>
    <tripinfo id="VehicleFlowNorth_6" depart="66.00" departLane="28925528_0" departPos="5.10" departSpeed="0.00" departDelay="0.00" arrival="102.00" arrivalLane="239331353_0" arrivalPos="144.87" arrivalSpeed="16.93" duration="36.00" routeLength="284.06" waitSteps="0" rerouteNo="0" devices="tripinfo_VehicleFlowNorth_6" vType="Vehicle" vaporized=""/>
    <tripinfo id="VehicleFlowSouth_4" depart="48.00" departLane="239331354_0" departPos="5.10" departSpeed="0.00" departDelay="0.00" arrival="104.00" arrivalLane="105490284_0" arrivalPos="112.78" arrivalSpeed="13.67" duration="56.00" routeLength="280.22" waitSteps="7" rerouteNo="0" devices="tripinfo_VehicleFlowSouth_4" vType="Vehicle" vaporized=""/>
    <tripinfo id="BusFlowLeft_0" depart="0.00" departLane="-240120122_0" departPos="17.10" departSpeed="0.00" departDelay="0.00" arrival="109.00" arrivalLane="--1277_0" arrivalPos="330.54" arrivalSpeed="5.19" duration="109.00" routeLength="682.02" waitSteps="0" rerouteNo="0" devices="tripinfo_BusFlowLeft_0" vType="Bus" vaporized=""/>
    <tripinfo id="VehicleFlowNorth_7" depart="75.00" departLane="28925528_0" departPos="5.10" departSpeed="0.00" departDelay="0.00" arrival="112.00" arrivalLane="105490271_0" arrivalPos="220.76" arrivalSpeed="13.83" duration="37.00" routeLength="342.23" waitSteps="0" rerouteNo="0" devices="tripinfo_VehicleFlowNorth_7" vType="Vehicle" vaporized=""/>
    <tripinfo id="VehicleFlowSouth_0" depart="12.00" departLane="239331354_0" departPos="5.10" departSpeed="0.00" departDelay="0.00" arrival="114.00" arrivalLane="105490279_0" arrivalPos="364.30" arrivalSpeed="13.67" duration="102.00" routeLength="502.38" waitSteps="40" rerouteNo="0" devices="tripinfo_VehicleFlowSouth_0" vType="Vehicle" vaporized=""/>
    <tripinfo id="VehicleFlowSouth_2" depart="30.00" departLane="239331354_0" departPos="5.10" departSpeed="0.00" departDelay="0.00" arrival="122.00" arrivalLane="105490279_0" arrivalPos="356.16" arrivalSpeed="13.85" duration="92.00" routeLength="494.24" waitSteps="26" rerouteNo="0" devices="tripinfo_VehicleFlowSouth_2" vType="Vehicle" vaporized=""/>
    <tripinfo id="VehicleFlowSouth_5" depart="57.00" departLane="239331354_0" departPos="5.10" departSpeed="0.00" departDelay="0.00" arrival="125.00" arrivalLane="105490279_0" arrivalPos="365.18" arrivalSpeed="13.86" duration="68.00" routeLength="503.26" waitSteps="0" rerouteNo="0" devices="tripinfo_VehicleFlowSouth_5" vType="Vehicle" vaporized=""/>
    <tripinfo id="VehicleFlowSouth_7" depart="75.00" departLane="239331354_0" departPos="5.10" departSpeed="0.00" departDelay="0.00" arrival="126.00" arrivalLane="105490279_0" arrivalPos="355.48" arrivalSpeed="13.73" duration="51.00" routeLength="493.56" waitSteps="0" rerouteNo="0" devices="tripinfo_VehicleFlowSouth_7" vType="Vehicle" vaporized=""/>
    <tripinfo id="VehicleFlowSouth_8" depart="84.00" departLane="239331354_0" departPos="5.10" departSpeed="0.00" departDelay="0.00" arrival="132.00" arrivalLane="105490279_0" arrivalPos="356.30" arrivalSpeed="13.65" duration="48.00" routeLength="494.38" waitSteps="0" rerouteNo="0" devices="tripinfo_VehicleFlowSouth_8" vType="Vehicle" vaporized=""/>
    <tripinfo id="VehicleFlowSouth_1" depart="21.00" departLane="239331354_0" departPos="5.10" departSpeed="0.00" departDelay="0.00" arrival="133.00" arrivalLane="105490271_0" arrivalPos="214.10" arrivalSpeed="13.88" duration="112.00" routeLength="409.99" waitSteps="40" rerouteNo="0" devices="tripinfo_VehicleFlowSouth_1" vType="Vehicle" vaporized=""/>
    <tripinfo id="BusFlowRight_0" depart="30.00" departLane="-1277_0" departPos="17.10" departSpeed="0.00" departDelay="0.00" arrival="135.00" arrivalLane="240120122_0" arrivalPos="339.38" arrivalSpeed="13.53" duration="105.00" routeLength="690.57" waitSteps="0" rerouteNo="0" devices="tripinfo_BusFlowRight_0" vType="Bus" vaporized=""/>
    <tripinfo id="VehicleFlowSouth_6" depart="66.00" departLane="239331354_0" departPos="5.10" departSpeed="0.00" departDelay="0.00" arrival="139.00" arrivalLane="105490271_0" arrivalPos="213.68" arrivalSpeed="13.55" duration="73.00" routeLength="409.57" waitSteps="11" rerouteNo="0" devices="tripinfo_VehicleFlowSouth_6" vType="Vehicle" vaporized=""/>
    <tripinfo id="VehicleFlowSouth_3" depart="39.00" departLane="239331354_0" departPos="5.10" departSpeed="0.00" departDelay="0.00" arrival="140.00" arrivalLane="105490284_0" arrivalPos="115.40" arrivalSpeed="13.89" duration="101.00" routeLength="378.21" waitSteps="28" rerouteNo="0" devices="tripinfo_VehicleFlowSouth_3" vType="Vehicle" vaporized=""/>
    <tripinfo id="VehicleFlowNorth_1" depart="21.00" departLane="28925528_0" departPos="5.10" departSpeed="0.00" departDelay="0.00" arrival="152.00" arrivalLane="105490279_0" arrivalPos="358.19" arrivalSpeed="13.84" duration="131.00" routeLength="517.22" waitSteps="51" rerouteNo="0" devices="tripinfo_VehicleFlowNorth_1" vType="Vehicle" vaporized=""/>
    <tripinfo id="VehicleFlowEast_1" depart="21.00" departLane="-1365_0" departPos="5.10" departSpeed="0.00" departDelay="0.00" arrival="167.00" arrivalLane="105490284_0" arrivalPos="118.18" arrivalSpeed="13.54" duration="146.00" routeLength="469.80" waitSteps="83" rerouteNo="0" devices="tripinfo_VehicleFlowEast_1" vType="Vehicle" vaporized=""/>
    <tripinfo id="VehicleFlowNorth_8" depart="84.00" departLane="28925528_0" departPos="5.10" departSpeed="0.00" departDelay="0.00" arrival="168.00" arrivalLane="105490271_0" arrivalPos="216.54" arrivalSpeed="13.81" duration="84.00" routeLength="338.01" waitSteps="34" rerouteNo="0" devices="tripinfo_VehicleFlowNorth_8" vType="Vehicle" vaporized=""/>
    <tripinfo id="VehicleFlowEast_2" depart="30.00" departLane="-1365_0" departPos="5.10" departSpeed="0.00" departDelay="0.00" arrival="169.00" arrivalLane="105490284_0" arrivalPos="116.66" arrivalSpeed="13.78" duration="139.00" routeLength="468.28" waitSteps="77" rerouteNo="0" devices="tripinfo_VehicleFlowEast_2" vType="Vehicle" vaporized=""/>
    <tripinfo id="VehicleFlowNorth_11" depart="111.00" departLane="28925528_0" departPos="5.10" departSpeed="0.00" departDelay="0.00" arrival="171.00" arrivalLane="105490271_1" arrivalPos="215.21" arrivalSpeed="13.51" duration="60.00" routeLength="336.68" waitSteps="10" rerouteNo="0" devices="tripinfo_VehicleFlowNorth_11" vType="Vehicle" vaporized=""/>
    <tripinfo id="VehicleFlowNorth_10" depart="102.00" departLane="28925528_0" departPos="5.10" departSpeed="0.00" departDelay="0.00" arrival="171.00" arrivalLane="105490271_0" arrivalPos="216.24" arrivalSpeed="13.74" duration="69.00" routeLength="337.71" waitSteps="17" rerouteNo="0" devices="tripinfo_VehicleFlowNorth_10" vType="Vehicle" vaporized=""/>
    <tripinfo id="VehicleFlowNorth_12" depart="120.00" departLane="28925528_0" departPos="5.10" departSpeed="0.00" departDelay="0.00" arrival="173.00" arrivalLane="105490271_0" arrivalPos="220.51" arrivalSpeed="13.63" duration="53.00" routeLength="341.98" waitSteps="2" rerouteNo="0" devices="tripinfo_VehicleFlowNorth_12" vType="Vehicle" vaporized=""/>
    <tripinfo id="VehicleFlowNorth_13" depart="129.00" departLane="28925528_0" departPos="5.10" departSpeed="0.00" departDelay="0.00" arrival="175.00" arrivalLane="105490271_1" arrivalPos="213.98" arrivalSpeed="13.87" duration="46.00" routeLength="335.45" waitSteps="0" rerouteNo="0" devices="tripinfo_VehicleFlowNorth_13" vType="Vehicle" vaporized=""/>
    <tripinfo id="VehicleFlowNorth_14" depart="138.00" departLane="28925528_0" departPos="5.10" departSpeed="0.00" departDelay="0.00" arrival="175.00" arrivalLane="105490271_0" arrivalPos="221.66" arrivalSpeed="13.75" duration="37.00" routeLength="343.13" waitSteps="0" rerouteNo="0" devices="tripinfo_VehicleFlowNorth_14" vType="Vehicle" vaporized=""/>
    <tripinfo id="VehicleFlowEast_3" depart="39.00" departLane="-1365_0" departPos="5.10" departSpeed="0.00" departDelay="0.00" arrival="176.00" arrivalLane="105490284_0" arrivalPos="112.09" arrivalSpeed="13.73" duration="137.00" routeLength="463.71" waitSteps="69" rerouteNo="0" devices="tripinfo_VehicleFlowEast_3" vType="Vehicle" vaporized=""/>
    <tripinfo id="VehicleFlowEast_5" depart="57.00" departLane="-1365_0" departPos="5.10" departSpeed="0.00" departDelay="0.00" arrival="179.00" arrivalLane="105490284_0" arrivalPos="119.64" arrivalSpeed="13.83" duration="122.00" routeLength="471.26" waitSteps="53" rerouteNo="0" devices="tripinfo_VehicleFlowEast_5" vType="Vehicle" vaporized=""/>
    <tripinfo id="VehicleFlowEast_8" depart="84.00" departLane="-1365_0" departPos="5.10" departSpeed="0.00" departDelay="0.00" arrival="186.00" arrivalLane="105490284_0" arrivalPos="111.36" arrivalSpeed="13.68" duration="102.00" routeLength="462.98" waitSteps="28" rerouteNo="0" devices="tripinfo_VehicleFlowEast_8" vType="Vehicle" vaporized=""/>
    <tripinfo id="VehicleFlowEast_10" depart="102.00" departLane="-1365_0" departPos="5.10" departSpeed="0.00" departDelay="0.00" arrival="189.00" arrivalLane="105490284_0" arrivalPos="112.59" arrivalSpeed="13.41" duration="87.00" routeLength="464.21" waitSteps="13" rerouteNo="0" devices="tripinfo_VehicleFlowEast_10" vType="Vehicle" vaporized=""/>
    <tripinfo id="VehicleFlowSouth_12" depart="120.00" departLane="239331354_0" departPos="5.10" departSpeed="0.00" departDelay="0.00" arrival="190.00" arrivalLane="105490279_0" arrivalPos="364.49" arrivalSpeed="13.57" duration="70.00" routeLength="502.57" waitSteps="7" rerouteNo="0" devices="tripinfo_VehicleFlowSouth_12" vType="Vehicle" vaporized=""/>
    <tripinfo id="VehicleFlowSouth_13" depart="129.00" departLane="239331354_0" departPos="5.10" departSpeed="0.00" departDelay="0.00" arrival="192.00" arrivalLane="105490279_0" arrivalPos="360.55" arrivalSpeed="13.84" duration="63.00" routeLength="498.63" waitSteps="0" rerouteNo="0" devices="tripinfo_VehicleFlowSouth_13" vType="Vehicle" vaporized=""/>
    <tripinfo id="VehicleFlowSouth_15" depart="147.00" departLane="239331354_0" departPos="5.10" departSpeed="0.00" departDelay="0.00" arrival="195.00" arrivalLane="105490279_0" arrivalPos="360.10" arrivalSpeed="13.88" duration="48.00" routeLength="498.18" waitSteps="0" rerouteNo="0" devices="tripinfo_VehicleFlowSouth_15" vType="Vehicle" vaporized=""/>
    <tripinfo id="VehicleFlowEast_0" depart="12.00" departLane="-1365_0" departPos="5.10" departSpeed="0.00" departDelay="0.00" arrival="203.00" arrivalLane="105490271_0" arrivalPos="216.34" arrivalSpeed="13.62" duration="191.00" routeLength="596.41" waitSteps="108" rerouteNo="0" devices="tripinfo_VehicleFlowEast_0" vType="Vehicle" vaporized=""/>
    <tripinfo id="VehicleFlowEast_4" depart="48.00" departLane="-1365_0" departPos="5.10" departSpeed="0.00" departDelay="0.00" arrival="204.00" arrivalLane="105490271_1" arrivalPos="218.65" arrivalSpeed="13.84" duration="156.00" routeLength="598.72" waitSteps="67" rerouteNo="0" devices="tripinfo_VehicleFlowEast_4" vType="Vehicle" vaporized=""/>
    <tripinfo id="VehicleFlowSouth_16" depart="156.00" departLane="239331354_0" departPos="5.10" departSpeed="0.00" departDelay="0.00" arrival="204.00" arrivalLane="105490279_0" arrivalPos="359.13" arrivalSpeed="13.73" duration="48.00" routeLength="497.21" waitSteps="0" rerouteNo="0" devices="tripinfo_VehicleFlowSouth_16" vType="Vehicle" vaporized=""/>
    <tripinfo id="VehicleFlowEast_6" depart="66.00" departLane="-1365_0" departPos="5.10" departSpeed="0.00" departDelay="0.00" arrival="205.00" arrivalLane="105490271_0" arrivalPos="217.26" arrivalSpeed="13.85" duration="139.00" routeLength="597.33" waitSteps="52" rerouteNo="0" devices="tripinfo_VehicleFlowEast_6" vType="Vehicle" vaporized=""/>
    <tripinfo id="VehicleFlowSouth_10" depart="102.00" departLane="239331354_0" departPos="5.10" departSpeed="0.00" departDelay="0.00" arrival="206.00" arrivalLane="105490284_0" arrivalPos="113.14" arrivalSpeed="13.83" duration="104.00" routeLength="280.58" waitSteps="44" rerouteNo="0" devices="tripinfo_VehicleFlowSouth_10" vType="Vehicle" vaporized=""/>
    <tripinfo id="VehicleFlowSouth_14" depart="138.00" departLane="239331354_0" departPos="5.10" departSpeed="0.00" departDelay="0.00" arrival="208.00" arrivalLane="105490284_0" arrivalPos="109.84" arrivalSpeed="13.64" duration="70.00" routeLength="277.28" waitSteps="13" rerouteNo="0" devices="tripinfo_VehicleFlowSouth_14" vType="Vehicle" vaporized=""/>
    <tripinfo id="VehicleFlowEast_7" depart="75.00" departLane="-1365_0" departPos="5.10" departSpeed="0.00" departDelay="0.00" arrival="210.00" arrivalLane="105490271_0" arrivalPos="219.46" arrivalSpeed="13.73" duration="135.00" routeLength="599.53" waitSteps="44" rerouteNo="0" devices="tripinfo_VehicleFlowEast_7" vType="Vehicle" vaporized=""/>
    <tripinfo id="VehicleFlowEast_11" depart="111.00" departLane="-1365_0" departPos="5.10" departSpeed="0.00" departDelay="0.00" arrival="213.00" arrivalLane="105490271_0" arrivalPos="215.69" arrivalSpeed="13.59" duration="102.00" routeLength="595.76" waitSteps="12" rerouteNo="0" devices="tripinfo_VehicleFlowEast_11" vType="Vehicle" vaporized=""/>
    <tripinfo id="VehicleFlowWest_0" depart="12.00" departLane="229259796_0" departPos="5.10" departSpeed="0.00" departDelay="0.00" arrival="215.00" arrivalLane="105490284_0" arrivalPos="117.23" arrivalSpeed="13.54" duration="203.00" routeLength="370.49" waitSteps="134" rerouteNo="0" devices="tripinfo_VehicleFlowWest_0" vType="Vehicle" vaporized=""/>
    <tripinfo id="VehicleFlowWest_9" depart="93.00" departLane="229259796_0" departPos="5.10" departSpeed="0.00" departDelay="0.00" arrival="217.00" arrivalLane="105490284_0" arrivalPos="122.21" arrivalSpeed="13.64" duration="124.00" routeLength="375.47" waitSteps="43" rerouteNo="0" devices="tripinfo_VehicleFlowWest_9" vType="Vehicle" vaporized=""/>
    <tripinfo id="VehicleFlowEast_12" depart="120.00" departLane="-1365_0" departPos="5.10" departSpeed="0.00" departDelay="0.00" arrival="218.00" arrivalLane="105490271_0" arrivalPos="215.15" arrivalSpeed="13.74" duration="98.00" routeLength="595.22" waitSteps="6" rerouteNo="0" devices="tripinfo_VehicleFlowEast_12" vType="Vehicle" vaporized=""/>
    <tripinfo id="VehicleFlowNorth_9" depart="93.00" departLane="28925528_0" departPos="5.10" departSpeed="0.00" departDelay="0.00" arrival="219.00" arrivalLane="239331353_0" arrivalPos="135.94" arrivalSpeed="14.07" duration="126.00" routeLength="275.13" waitSteps="68" rerouteNo="0" devices="tripinfo_VehicleFlowNorth_9" vType="Vehicle" vaporized=""/>
    <tripinfo id="VehicleFlowSouth_9" depart="93.00" departLane="239331354_0" departPos="5.10" departSpeed="0.00" departDelay="0.00" arrival="223.00" arrivalLane="105490271_0" arrivalPos="214.81" arrivalSpeed="13.84" duration="130.00" routeLength="410.70" waitSteps="61" rerouteNo="0" devices="tripinfo_VehicleFlowSouth_9" vType="Vehicle" vaporized=""/>
    <tripinfo id="VehicleFlowNorth_15" depart="147.00" departLane="28925528_0" departPos="5.10" departSpeed="0.00" departDelay="0.00" arrival="224.00" arrivalLane="105490284_0" arrivalPos="108.93" arrivalSpeed="13.56" duration="77.00" routeLength="297.32" waitSteps="23" rerouteNo="0" devices="tripinfo_VehicleFlowNorth_15" vType="Vehicle" vaporized=""/>
    <tripinfo id="VehicleFlowNorth_17" depart="165.00" departLane="28925528_0" departPos="5.10" departSpeed="0.00" departDelay="0.00" arrival="238.00" arrivalLane="105490271_1" arrivalPos="217.94" arrivalSpeed="13.78" duration="73.00" routeLength="339.41" waitSteps="22" rerouteNo="0" devices="tripinfo_VehicleFlowNorth_17" vType="Vehicle" vaporized=""/>
    <tripinfo id="VehicleFlowNorth_16" depart="156.00" departLane="28925528_0" departPos="5.10" departSpeed="0.00" departDelay="0.00" arrival="238.00" arrivalLane="105490271_0" arrivalPos="220.94" arrivalSpeed="13.72" duration="82.00" routeLength="342.41" waitSteps="33" rerouteNo="0" devices="tripinfo_VehicleFlowNorth_16" vType="Vehicle" vaporized=""/>
    <tripinfo id="VehicleFlowNorth_19" depart="183.00" departLane="28925528_0" departPos="5.10" departSpeed="0.00" departDelay="0.00" arrival="238.00" arrivalLane="239331353_0" arrivalPos="147.03" arrivalSpeed="16.10" duration="55.00" routeLength="286.22" waitSteps="6" rerouteNo="0" devices="tripinfo_VehicleFlowNorth_19" vType="Vehicle" vaporized=""/>
    <tripinfo id="VehicleFlowNorth_18" depart="174.00" departLane="28925528_0" departPos="5.10" departSpeed="0.00" departDelay="0.00" arrival="241.00" arrivalLane="105490271_0" arrivalPos="225.39" arrivalSpeed="13.70" duration="67.00" routeLength="346.86" waitSteps="16" rerouteNo="0" devices="tripinfo_VehicleFlowNorth_18" vType="Vehicle" vaporized=""/>
    <tripinfo id="VehicleFlowNorth_21" depart="201.00" departLane="28925528_0" departPos="5.10" departSpeed="0.00" departDelay="0.00" arrival="242.00" arrivalLane="105490271_0" arrivalPos="216.45" arrivalSpeed="13.72" duration="41.00" routeLength="337.92" waitSteps="0" rerouteNo="0" devices="tripinfo_VehicleFlowNorth_21" vType="Vehicle" vaporized=""/>
    <tripinfo id="VehicleFlowEast_13" depart="129.00" departLane="-1365_0" departPos="5.10" departSpeed="0.00" departDelay="0.00" arrival="245.00" arrivalLane="105490284_0" arrivalPos="119.42" arrivalSpeed="13.87" duration="116.00" routeLength="471.04" waitSteps="48" rerouteNo="0" devices="tripinfo_VehicleFlowEast_13" vType="Vehicle" vaporized=""/>
    <tripinfo id="VehicleFlowEast_15" depart="147.00" departLane="-1365_0" departPos="5.10" departSpeed="0.00" departDelay="0.00" arrival="248.00" arrivalLane="105490284_0" arrivalPos="121.25" arrivalSpeed="13.70" duration="101.00" routeLength="472.87" waitSteps="40" rerouteNo="0" devices="tripinfo_VehicleFlowEast_15" vType="Vehicle" vaporized=""/>
    <tripinfo id="VehicleFlowEast_18" depart="174.00" departLane="-1365_0" departPos="5.10" departSpeed="0.00" departDelay="0.00" arrival="254.00" arrivalLane="105490284_0" arrivalPos="116.04" arrivalSpeed="13.56" duration="80.00" routeLength="467.66" waitSteps="12" rerouteNo="0" devices="tripinfo_VehicleFlowEast_18" vType="Vehicle" vaporized=""/>
    <tripinfo id="VehicleFlowWest_1" depart="21.00" departLane="229259796_0" departPos="5.10" departSpeed="0.00" departDelay="0.00" arrival="262.00" arrivalLane="239331353_0" arrivalPos="135.32" arrivalSpeed="13.70" duration="241.00" routeLength="339.38" waitSteps="178" rerouteNo="0" devices="tripinfo_VehicleFlowWest_1" vType="Vehicle" vaporized=""/>
    <tripinfo id="VehicleFlowSouth_17" depart="165.00" departLane="239331354_0" departPos="5.10" departSpeed="0.00" departDelay="0.00" arrival="266.00" arrivalLane="105490279_0" arrivalPos="362.99" arrivalSpeed="13.74" duration="101.00" routeLength="501.07" waitSteps="38" rerouteNo="0" devices="tripinfo_VehicleFlowSouth_17" vType="Vehicle" vaporized=""/>
    <tripinfo id="VehicleFlowSouth_18" depart="174.00" departLane="239331354_0" departPos="5.10" departSpeed="0.00" departDelay="0.00" arrival="274.00" arrivalLane="105490279_0" arrivalPos="360.73" arrivalSpeed="13.81" duration="100.00" routeLength="498.81" waitSteps="33" rerouteNo="0" devices="tripinfo_VehicleFlowSouth_18" vType="Vehicle" vaporized=""/>
    <tripinfo id="VehicleFlowSouth_19" depart="183.00" departLane="239331354_0" departPos="5.10" departSpeed="0.00" departDelay="0.00" arrival="276.00" arrivalLane="105490279_0" arrivalPos="354.42" arrivalSpeed="13.50" duration="93.00" routeLength="492.50" waitSteps="23" rerouteNo="0" devices="tripinfo_VehicleFlowSouth_19" vType="Vehicle" vaporized=""/>
    <tripinfo id="VehicleFlowWest_2" depart="30.00" departLane="229259796_0" departPos="5.10" departSpeed="0.00" departDelay="0.00" arrival="276.00" arrivalLane="239331353_0" arrivalPos="144.72" arrivalSpeed="13.61" duration="246.00" routeLength="348.78" waitSteps="173" rerouteNo="0" devices="tripinfo_VehicleFlowWest_2" vType="Vehicle" vaporized=""/>
    <tripinfo id="VehicleFlowEast_16" depart="156.00" departLane="-1365_0" departPos="5.10" departSpeed="0.00" departDelay="0.00" arrival="279.00" arrivalLane="105490271_0" arrivalPos="223.57" arrivalSpeed="13.76" duration="123.00" routeLength="603.64" waitSteps="31" rerouteNo="0" devices="tripinfo_VehicleFlowEast_16" vType="Vehicle" vaporized=""/>
    <tripinfo id="VehicleFlowEast_19" depart="183.00" departLane="-1365_0" departPos="5.10" departSpeed="0.00" departDelay="0.00" arrival="281.00" arrivalLane="105490271_0" arrivalPos="224.09" arrivalSpeed="13.87" duration="98.00" routeLength="604.16" waitSteps="8" rerouteNo="0" devices="tripinfo_VehicleFlowEast_19" vType="Vehicle" vaporized=""/>
    <tripinfo id="VehicleFlowWest_4" depart="48.00" departLane="229259796_0" departPos="5.10" departSpeed="0.00" departDelay="0.00" arrival="284.00" arrivalLane="239331353_0" arrivalPos="135.40" arrivalSpeed="13.75" duration="236.00" routeLength="339.46" waitSteps="155" rerouteNo="0" devices="tripinfo_VehicleFlowWest_4" vType="Vehicle" vaporized=""/>
    <tripinfo id="VehicleFlowSouth_22" depart="210.00" departLane="239331354_0" departPos="5.10" departSpeed="0.00" departDelay="0.00" arrival="284.00" arrivalLane="105490284_0" arrivalPos="119.62" arrivalSpeed="13.52" duration="74.00" routeLength="287.06" waitSteps="20" rerouteNo="0" devices="tripinfo_VehicleFlowSouth_22" vType="Vehicle" vaporized=""/>
    <tripinfo id="VehicleFlowSouth_21" depart="201.00" departLane="239331354_0" departPos="5.10" departSpeed="0.00" departDelay="0.00" arrival="285.00" arrivalLane="105490279_0" arrivalPos="360.05" arrivalSpeed="13.59" duration="84.00" routeLength="498.13" waitSteps="8" rerouteNo="0" devices="tripinfo_VehicleFlowSouth_21" vType="Vehicle" vaporized=""/>
    <tripinfo id="VehicleFlowSouth_23" depart="219.00" departLane="239331354_0" departPos="5.10" departSpeed="0.00" departDelay="0.00" arrival="287.00" arrivalLane="105490284_0" arrivalPos="116.58" arrivalSpeed="13.55" duration="68.00" routeLength="284.02" waitSteps="17" rerouteNo="0" devices="tripinfo_VehicleFlowSouth_23" vType="Vehicle" vaporized=""/>
    <tripinfo id="VehicleFlowSouth_11" depart="111.00" departLane="239331354_0" departPos="5.10" departSpeed="0.00" departDelay="0.00" arrival="291.00" arrivalLane="105490271_0" arrivalPos="221.14" arrivalSpeed="13.57" duration="180.00" routeLength="417.03" waitSteps="79" rerouteNo="0" devices="tripinfo_VehicleFlowSouth_11" vType="Vehicle" vaporized=""/>
    <tripinfo id="VehicleFlowEast_22" depart="210.00" departLane="-1365_0" departPos="5.10" departSpeed="0.00" departDelay="0.00" arrival="293.00" arrivalLane="105490271_0" arrivalPos="224.07" arrivalSpeed="13.86" duration="83.00" routeLength="604.14" waitSteps="0" rerouteNo="0" devices="tripinfo_VehicleFlowEast_22" vType="Vehicle" vaporized=""/>
    <tripinfo id="VehicleFlowSouth_24" depart="228.00" departLane="239331354_0" departPos="5.10" departSpeed="0.00" departDelay="0.00" arrival="294.00" arrivalLane="105490279_0" arrivalPos="363.70" arrivalSpeed="13.84" duration="66.00" routeLength="501.78" waitSteps="2" rerouteNo="0" devices="tripinfo_VehicleFlowSouth_24" vType="Vehicle" vaporized=""/>
    <tripinfo id="VehicleFlowNorth_20" depart="192.00" departLane="28925528_0" departPos="5.10" departSpeed="0.00" departDelay="0.00" arrival="299.00" arrivalLane="239331353_0" arrivalPos="141.00" arrivalSpeed="13.97" duration="107.00" routeLength="280.19" waitSteps="48" rerouteNo="0" devices="tripinfo_VehicleFlowNorth_20" vType="Vehicle" vaporized=""/>
    <tripinfo id="VehicleFlowWest_18" depart="174.00" departLane="229259796_0" departPos="5.10" departSpeed="0.00" departDelay="0.00" arrival="299.00" arrivalLane="105490284_0" arrivalPos="119.36" arrivalSpeed="13.82" duration="125.00" routeLength="372.62" waitSteps="23" rerouteNo="0" devices="tripinfo_VehicleFlowWest_18" vType="Vehicle" vaporized=""/>
    <tripinfo id="VehicleFlowNorth_22" depart="210.00" departLane="28925528_0" departPos="5.10" departSpeed="0.00" departDelay="0.00" arrival="301.00" arrivalLane="239331353_0" arrivalPos="146.00" arrivalSpeed="14.34" duration="91.00" routeLength="285.19" waitSteps="40" rerouteNo="0" devices="tripinfo_VehicleFlowNorth_22" vType="Vehicle" vaporized=""/>
    <tripinfo id="VehicleFlowWest_7" depart="75.00" departLane="229259796_0" departPos="5.10" departSpeed="0.00" departDelay="0.00" arrival="304.00" arrivalLane="105490279_0" arrivalPos="354.88" arrivalSpeed="13.63" duration="229.00" routeLength="578.78" waitSteps="91" rerouteNo="0" devices="tripinfo_VehicleFlowWest_7" vType="Vehicle" vaporized=""/>
    <tripinfo id="VehicleFlowWest_13" depart="129.00" departLane="229259796_0" departPos="5.10" departSpeed="0.00" departDelay="0.00" arrival="310.00" arrivalLane="105490279_0" arrivalPos="363.98" arrivalSpeed="13.74" duration="181.00" routeLength="587.88" waitSteps="27" rerouteNo="0" devices="tripinfo_VehicleFlowWest_13" vType="Vehicle" vaporized=""/>
    <tripinfo id="VehicleFlowNorth_23" depart="219.00" departLane="28925528_0" departPos="5.10" departSpeed="0.00" departDelay="0.00" arrival="310.00" arrivalLane="239331353_0" arrivalPos="140.62" arrivalSpeed="13.99" duration="91.00" routeLength="279.81" waitSteps="35" rerouteNo="0" devices="tripinfo_VehicleFlowNorth_23" vType="Vehicle" vaporized=""/>
    <tripinfo id="VehicleFlowEast_21" depart="201.00" departLane="-1365_0" departPos="5.10" departSpeed="0.00" departDelay="0.00" arrival="313.00" arrivalLane="105490271_0" arrivalPos="226.23" arrivalSpeed="13.60" duration="112.00" routeLength="606.30" waitSteps="8" rerouteNo="0" devices="tripinfo_VehicleFlowEast_21" vType="Vehicle" vaporized=""/>
    <tripinfo id="VehicleFlowNorth_24" depart="228.00" departLane="28925528_0" departPos="5.10" departSpeed="0.00" departDelay="0.00" arrival="314.00" arrivalLane="105490271_0" arrivalPos="216.37" arrivalSpeed="13.79" duration="86.00" routeLength="337.84" waitSteps="31" rerouteNo="0" devices="tripinfo_VehicleFlowNorth_24" vType="Vehicle" vaporized=""/>
    <tripinfo id="VehicleFlowEast_17" depart="165.00" departLane="-1365_0" departPos="5.10" departSpeed="0.00" departDelay="0.00" arrival="316.00" arrivalLane="105490271_1" arrivalPos="216.71" arrivalSpeed="13.55" duration="151.00" routeLength="596.78" waitSteps="41" rerouteNo="0" devices="tripinfo_VehicleFlowEast_17" vType="Vehicle" vaporized=""/>
    <tripinfo id="VehicleFlowNorth_27" depart="255.00" departLane="28925528_0" departPos="5.10" departSpeed="0.00" departDelay="0.00" arrival="318.00" arrivalLane="105490271_0" arrivalPos="223.77" arrivalSpeed="13.76" duration="63.00" routeLength="345.24" waitSteps="6" rerouteNo="0" devices="tripinfo_VehicleFlowNorth_27" vType="Vehicle" vaporized=""/>