<?xml version="1.0"?>

<!-- generated on lun. 07 oct. 2013 14:57:51 CEST by SUMO gui Version 0.16.0
<?xml version="1.0" encoding="UTF-8"?>

<configuration xmlns:xsi="http://www.w3.org/2001/XMLSchema-instance" xsi:noNamespaceSchemaLocation="http://sumo.sf.net/xsd/sumo-gui.exeConfiguration.xsd">

    <input>
        <net-file value="data/map.net.xml"/>
        <route-files value="data/map.rou.xml"/>
    </input>

    <output>
        <tripinfo-output value="data/maptripinfo.out.xml"/>
    </output>

    <time>
        <begin value="0"/>
    </time>

    <processing>
        <time-to-teleport value="100"/>
        <lanechange.allow-swap value="true"/>
    </processing>

    <report>
        <no-step-log value="true"/>
    </report>

    <traci_server>
        <remote-port value="8813"/>
    </traci_server>

</configuration>
-->

<tripinfos>
    <tripinfo id="32" depart="32.00" departLane="4325175#0_0" departPos="5.10" departSpeed="0.00" departDelay="0.00" arrival="47.00" arrivalLane="4325175#1_0" arrivalPos="87.01" arrivalSpeed="21.21" duration="15.00" routeLength="186.45" waitSteps="0" rerouteNo="0" devices="tripinfo_32" vType="DEFAULT_VEHTYPE" vaporized=""/>
    <tripinfo id="6" depart="6.00" departLane="220001147#10_0" departPos="5.10" departSpeed="0.00" departDelay="0.00" arrival="61.00" arrivalLane="88457621#6_0" arrivalPos="9.65" arrivalSpeed="13.24" duration="55.00" routeLength="667.38" waitSteps="0" rerouteNo="0" devices="tripinfo_6" vType="DEFAULT_VEHTYPE" vaporized=""/>
    <tripinfo id="53" depart="53.00" departLane="201749676#3_0" departPos="5.10" departSpeed="0.00" departDelay="0.00" arrival="64.00" arrivalLane="121250742#3_0" arrivalPos="48.81" arrivalSpeed="13.81" duration="11.00" routeLength="101.89" waitSteps="0" rerouteNo="0" devices="tripinfo_53" vType="DEFAULT_VEHTYPE" vaporized=""/>
    <tripinfo id="14" depart="14.00" departLane="83800992#5_0" departPos="5.10" departSpeed="0.00" departDelay="0.00" arrival="69.00" arrivalLane="4599555#1_0" arrivalPos="67.07" arrivalSpeed="13.75" duration="55.00" routeLength="735.46" waitSteps="0" rerouteNo="0" devices="tripinfo_14" vType="DEFAULT_VEHTYPE" vaporized=""/>
    <tripinfo id="5" depart="5.00" departLane="4360693#0_0" departPos="5.10" departSpeed="0.00" departDelay="0.00" arrival="72.00" arrivalLane="189649886#2_0" arrivalPos="148.56" arrivalSpeed="13.10" duration="67.00" routeLength="494.00" waitSteps="11" rerouteNo="0" devices="tripinfo_5" vType="DEFAULT_VEHTYPE" vaporized=""/>
    <tripinfo id="27" depart="27.00" departLane="133159028#1_0" departPos="5.10" departSpeed="0.00" departDelay="0.00" arrival="75.00" arrivalLane="49680966#0_0" arrivalPos="70.16" arrivalSpeed="12.80" duration="48.00" routeLength="418.26" waitSteps="0" rerouteNo="0" devices="tripinfo_27" vType="DEFAULT_VEHTYPE" vaporized=""/>
    <tripinfo id="26" depart="26.00" departLane="5073315#1_0" departPos="5.10" departSpeed="0.00" departDelay="0.00" arrival="86.00" arrivalLane="4274858#6_0" arrivalPos="77.34" arrivalSpeed="21.24" duration="60.00" routeLength="192.39" waitSteps="31" rerouteNo="0" devices="tripinfo_26" vType="DEFAULT_VEHTYPE" vaporized=""/>
    <tripinfo id="4" depart="4.00" departLane="4378842#2_0" departPos="5.10" departSpeed="0.00" departDelay="0.00" arrival="91.00" arrivalLane="5074417#0_0" arrivalPos="71.99" arrivalSpeed="22.32" duration="87.00" routeLength="916.13" waitSteps="0" rerouteNo="0" devices="tripinfo_4" vType="DEFAULT_VEHTYPE" vaporized=""/>
    <tripinfo id="12" depart="12.00" departLane="220001147#13_0" departPos="5.10" departSpeed="0.00" departDelay="0.00" arrival="95.00" arrivalLane="5073313_0" arrivalPos="49.22" arrivalSpeed="8.36" duration="83.00" routeLength="686.65" waitSteps="15" rerouteNo="0" devices="tripinfo_12" vType="DEFAULT_VEHTYPE" vaporized=""/>
    <tripinfo id="15" depart="15.00" departLane="4306139#6_0" departPos="5.10" departSpeed="0.00" departDelay="0.00" arrival="96.00" arrivalLane="-4325174#0_0" arrivalPos="93.72" arrivalSpeed="19.70" duration="81.00" routeLength="768.93" waitSteps="0" rerouteNo="0" devices="tripinfo_15" vType="DEFAULT_VEHTYPE" vaporized=""/>
    <tripinfo id="29" depart="29.00" departLane="4252110_0" departPos="5.10" departSpeed="0.00" departDelay="0.00" arrival="100.00" arrivalLane="49680966#9_0" arrivalPos="76.79" arrivalSpeed="13.28" duration="71.00" routeLength="399.02" waitSteps="21" rerouteNo="0" devices="tripinfo_29" vType="DEFAULT_VEHTYPE" vaporized=""/>
    <tripinfo id="9" depart="9.00" departLane="157518927#1_0" departPos="5.10" departSpeed="0.00" departDelay="0.00" arrival="102.00" arrivalLane="88457621#3_0" arrivalPos="34.26" arrivalSpeed="12.88" duration="93.00" routeLength="722.68" waitSteps="26" rerouteNo="0" devices="tripinfo_9" vType="DEFAULT_VEHTYPE" vaporized=""/>
    <tripinfo id="50" depart="50.00" departLane="85511738#0_0" departPos="5.10" departSpeed="0.00" departDelay="0.00" arrival="106.00" arrivalLane="49680966#2_0" arrivalPos="78.89" arrivalSpeed="13.82" duration="56.00" routeLength="620.69" waitSteps="0" rerouteNo="0" devices="tripinfo_50" vType="DEFAULT_VEHTYPE" vaporized=""/>
    <tripinfo id="28" depart="28.00" departLane="211418717#0_0" departPos="5.10" departSpeed="0.00" departDelay="0.00" arrival="107.00" arrivalLane="4274860#4_0" arrivalPos="18.95" arrivalSpeed="23.65" duration="79.00" routeLength="759.48" waitSteps="0" rerouteNo="0" devices="tripinfo_28" vType="DEFAULT_VEHTYPE" vaporized=""/>
    <tripinfo id="8" depart="8.00" departLane="4306139#9_0" departPos="5.10" departSpeed="0.00" departDelay="0.00" arrival="107.00" arrivalLane="65092502#7_0" arrivalPos="19.67" arrivalSpeed="21.05" duration="99.00" routeLength="628.10" waitSteps="30" rerouteNo="0" devices="tripinfo_8" vType="DEFAULT_VEHTYPE" vaporized=""/>
    <tripinfo id="0" depart="0.00" departLane="-133023681#1_0" departPos="5.10" departSpeed="0.00" departDelay="0.00" arrival="107.00" arrivalLane="4345367#0_0" arrivalPos="20.25" arrivalSpeed="12.37" duration="107.00" routeLength="830.43" waitSteps="13" rerouteNo="0" devices="tripinfo_0" vType="DEFAULT_VEHTYPE" vaporized=""/>
    <tripinfo id="45" depart="45.00" departLane="60465708#1_0" departPos="5.10" departSpeed="0.00" departDelay="0.00" arrival="111.00" arrivalLane="89388042_0" arrivalPos="106.17" arrivalSpeed="26.85" duration="66.00" routeLength="692.53" waitSteps="12" rerouteNo="0" devices="tripinfo_45" vType="DEFAULT_VEHTYPE" vaporized=""/>
    <tripinfo id="18" depart="18.00" departLane="133156135_0" departPos="5.10" departSpeed="0.00" departDelay="0.00" arrival="111.00" arrivalLane="189649893#2_0" arrivalPos="128.15" arrivalSpeed="12.68" duration="93.00" routeLength="902.38" waitSteps="0" rerouteNo="0" devices="tripinfo_18" vType="DEFAULT_VEHTYPE" vaporized=""/>
    <tripinfo id="37" depart="37.00" departLane="136975091#2_0" departPos="2.79" departSpeed="0.00" departDelay="0.00" arrival="131.00" arrivalLane="-10591247_0" arrivalPos="104.82" arrivalSpeed="13.60" duration="94.00" routeLength="672.51" waitSteps="11" rerouteNo="0" devices="tripinfo_37" vType="DEFAULT_VEHTYPE" vaporized=""/>
    <tripinfo id="54" depart="54.00" departLane="4985790#3_0" departPos="5.10" departSpeed="0.00" departDelay="0.00" arrival="133.00" arrivalLane="109213554#1_0" arrivalPos="127.49" arrivalSpeed="21.37" duration="79.00" routeLength="902.24" waitSteps="0" rerouteNo="0" devices="tripinfo_54" vType="DEFAULT_VEHTYPE" vaporized=""/>
    <tripinfo id="42" depart="42.00" departLane="-89272701#3_0" departPos="5.10" departSpeed="0.00" departDelay="0.00" arrival="136.00" arrivalLane="4378789#3_0" arrivalPos="89.79" arrivalSpeed="12.78" duration="94.00" routeLength="393.36" waitSteps="40" rerouteNo="0" devices="tripinfo_42" vType="DEFAULT_VEHTYPE" vaporized=""/>
    <tripinfo id="78" depart="78.00" departLane="189649884_0" departPos="5.10" departSpeed="0.00" departDelay="0.00" arrival="139.00" arrivalLane="-4325174#0_0" arrivalPos="81.76" arrivalSpeed="18.83" duration="61.00" routeLength="789.02" waitSteps="0" rerouteNo="0" devices="tripinfo_78" vType="DEFAULT_VEHTYPE" vaporized=""/>
    <tripinfo id="68" depart="68.00" departLane="4378888#2_0" departPos="5.10" departSpeed="0.00" departDelay="0.00" arrival="140.00" arrivalLane="83800992#7_0" arrivalPos="105.65" arrivalSpeed="27.22" duration="72.00" routeLength="841.71" waitSteps="0" rerouteNo="0" devices="tripinfo_68" vType="DEFAULT_VEHTYPE" vaporized=""/>
    <tripinfo id="123" depart="123.00" departLane="189649893#0_0" departPos="5.10" departSpeed="0.00" departDelay="0.00" arrival="143.00" arrivalLane="189649893#2_0" arrivalPos="130.47" arrivalSpeed="13.37" duration="20.00" routeLength="213.35" waitSteps="0" rerouteNo="0" devices="tripinfo_123" vType="DEFAULT_VEHTYPE" vaporized=""/>
    <tripinfo id="83" depart="83.00" departLane="121250742#2_0" departPos="5.10" departSpeed="0.00" departDelay="0.00" arrival="149.00" arrivalLane="5074476_1" arrivalPos="219.20" arrivalSpeed="26.55" duration="66.00" routeLength="832.72" waitSteps="0" rerouteNo="0" devices="tripinfo_83" vType="DEFAULT_VEHTYPE" vaporized=""/>
    <tripinfo id="43" depart="43.00" departLane="210438334#5_0" departPos="5.10" departSpeed="0.00" departDelay="0.00" arrival="160.00" arrivalLane="4324369#1_0" arrivalPos="214.97" arrivalSpeed="21.74" duration="117.00" routeLength="1250.18" waitSteps="27" rerouteNo="0" devices="tripinfo_43" vType="DEFAULT_VEHTYPE" vaporized=""/>
    <tripinfo id="116" depart="116.00" departLane="201749676#6_0" departPos="5.10" departSpeed="0.00" departDelay="0.00" arrival="161.00" arrivalLane="109213554#3_0" arrivalPos="92.87" arrivalSpeed="16.45" duration="45.00" routeLength="418.30" waitSteps="0" rerouteNo="0" devices="tripinfo_116" vType="DEFAULT_VEHTYPE" vaporized=""/>
    <tripinfo id="22" depart="22.00" departLane="4274835#10_0" departPos="2.19" departSpeed="0.00" departDelay="0.00" arrival="161.00" arrivalLane="4324352#3_0" arrivalPos="129.23" arrivalSpeed="21.68" duration="139.00" routeLength="1376.01" waitSteps="7" rerouteNo="0" devices="tripinfo_22" vType="DEFAULT_VEHTYPE" vaporized=""/>
    <tripinfo id="17" depart="17.00" departLane="192922521#2_0" departPos="5.10" departSpeed="0.00" departDelay="0.00" arrival="161.00" arrivalLane="4325174#0_0" arrivalPos="86.34" arrivalSpeed="22.11" duration="144.00" routeLength="1041.50" waitSteps="62" rerouteNo="0" devices="tripinfo_17" vType="DEFAULT_VEHTYPE" vaporized=""/>
    <tripinfo id="156" depart="156.00" departLane="4274858#6_0" departPos="5.10" departSpeed="0.00" departDelay="0.00" arrival="166.00" arrivalLane="4274858#7_0" arrivalPos="49.40" arrivalSpeed="19.90" duration="10.00" routeLength="106.04" waitSteps="0" rerouteNo="0" devices="tripinfo_156" vType="DEFAULT_VEHTYPE" vaporized=""/>
    <tripinfo id="73" depart="73.00" departLane="4324356#0_0" departPos="5.10" departSpeed="0.00" departDelay="0.00" arrival="168.00" arrivalLane="109213554#1_0" arrivalPos="120.56" arrivalSpeed="21.96" duration="95.00" routeLength="945.20" waitSteps="14" rerouteNo="0" devices="tripinfo_73" vType="DEFAULT_VEHTYPE" vaporized=""/>
    <tripinfo id="35" depart="35.00" departLane="157518927#2_0" departPos="5.10" departSpeed="0.00" departDelay="0.00" arrival="170.00" arrivalLane="22701333_0" arrivalPos="80.48" arrivalSpeed="7.71" duration="135.00" routeLength="635.85" waitSteps="49" rerouteNo="0" devices="tripinfo_35" vType="DEFAULT_VEHTYPE" vaporized=""/>
    <tripinfo id="24" depart="24.00" departLane="210438334#4_0" departPos="5.10" departSpeed="0.00" departDelay="0.00" arrival="170.00" arrivalLane="4324388#1_0" arrivalPos="64.93" arrivalSpeed="8.76" duration="146.00" routeLength="1723.91" waitSteps="0" rerouteNo="0" devices="tripinfo_24" vType="DEFAULT_VEHTYPE" vaporized=""/>
    <tripinfo id="20" depart="20.00" departLane="-65092498_0" departPos="5.10" departSpeed="0.00" departDelay="0.00" arrival="171.00" arrivalLane="34407231_0" arrivalPos="41.57" arrivalSpeed="2.13" duration="151.00" routeLength="1061.88" waitSteps="34" rerouteNo="0" devices="tripinfo_20" vType="DEFAULT_VEHTYPE" vaporized=""/>
    <tripinfo id="104" depart="104.00" departLane="201749676#6_0" departPos="5.10" departSpeed="0.00" departDelay="0.00" arrival="173.00" arrivalLane="140519371_0" arrivalPos="78.76" arrivalSpeed="13.16" duration="69.00" routeLength="867.63" waitSteps="0" rerouteNo="0" devices="tripinfo_104" vType="DEFAULT_VEHTYPE" vaporized=""/>
    <tripinfo id="46" depart="46.00" departLane="5073312#0_0" departPos="5.10" departSpeed="0.00" departDelay="0.00" arrival="174.00" arrivalLane="85511738#0_0" arrivalPos="134.73" arrivalSpeed="13.05" duration="128.00" routeLength="1103.34" waitSteps="14" rerouteNo="0" devices="tripinfo_46" vType="DEFAULT_VEHTYPE" vaporized=""/>
    <tripinfo id="147" depart="147.00" departLane="4985790#11_0" departPos="5.10" departSpeed="0.00" departDelay="0.00" arrival="176.00" arrivalLane="4306139#6_0" arrivalPos="131.93" arrivalSpeed="13.76" duration="29.00" routeLength="304.00" waitSteps="0" rerouteNo="0" devices="tripinfo_147" vType="DEFAULT_VEHTYPE" vaporized=""/>
    <tripinfo id="111" depart="111.00" departLane="4170811#1_0" departPos="5.10" departSpeed="0.00" departDelay="0.00" arrival="177.00" arrivalLane="4274858#9_0" arrivalPos="95.52" arrivalSpeed="22.22" duration="66.00" routeLength="1162.04" waitSteps="0" rerouteNo="0" devices="tripinfo_111" vType="public_emergency" vaporized=""/>
    <tripinfo id="34" depart="34.00" departLane="4170811#9_0" departPos="5.10" departSpeed="0.00" departDelay="0.00" arrival="180.00" arrivalLane="49680966#3_0" arrivalPos="23.75" arrivalSpeed="11.88" duration="146.00" routeLength="735.75" waitSteps="63" rerouteNo="0" devices="tripinfo_34" vType="DEFAULT_VEHTYPE" vaporized=""/>
    <tripinfo id="141" depart="141.00" departLane="5074416#4_0" departPos="5.10" departSpeed="0.00" departDelay="0.00" arrival="185.00" arrivalLane="4360693#3_0" arrivalPos="61.74" arrivalSpeed="13.71" duration="44.00" routeLength="380.04" waitSteps="0" rerouteNo="0" devices="tripinfo_141" vType="DEFAULT_VEHTYPE" vaporized=""/>
    <tripinfo id="84" depart="84.00" departLane="109213539_0" departPos="5.10" departSpeed="0.00" departDelay="0.00" arrival="187.00" arrivalLane="4306139#6_0" arrivalPos="128.71" arrivalSpeed="13.79" duration="103.00" routeLength="1129.31" waitSteps="3" rerouteNo="0" devices="tripinfo_84" vType="DEFAULT_VEHTYPE" vaporized=""/>
    <tripinfo id="36" depart="36.00" departLane="109213554#0_0" departPos="5.10" departSpeed="0.00" departDelay="0.00" arrival="189.00" arrivalLane="25420703_0" arrivalPos="60.94" arrivalSpeed="7.12" duration="153.00" routeLength="1199.97" waitSteps="38" rerouteNo="0" devices="tripinfo_36" vType="DEFAULT_VEHTYPE" vaporized=""/>
    <tripinfo id="25" depart="25.00" departLane="4170811#13_0" departPos="5.10" departSpeed="0.00" departDelay="0.00" arrival="192.00" arrivalLane="58993645#3_0" arrivalPos="130.44" arrivalSpeed="13.63" duration="167.00" routeLength="1688.18" waitSteps="15" rerouteNo="0" devices="tripinfo_25" vType="DEFAULT_VEHTYPE" vaporized=""/>
    <tripinfo id="55" depart="55.00" departLane="85511741#2_0" departPos="2.23" departSpeed="0.00" departDelay="0.00" arrival="192.00" arrivalLane="39911870_0" arrivalPos="82.29" arrivalSpeed="12.70" duration="137.00" routeLength="1452.93" waitSteps="0" rerouteNo="0" devices="tripinfo_55" vType="DEFAULT_VEHTYPE" vaporized=""/>
    <tripinfo id="124" depart="124.00" departLane="207572286#1_0" departPos="5.10" departSpeed="0.00" departDelay="0.00" arrival="192.00" arrivalLane="4599553#0_0" arrivalPos="32.52" arrivalSpeed="13.38" duration="68.00" routeLength="825.18" waitSteps="0" rerouteNo="0" devices="tripinfo_124" vType="DEFAULT_VEHTYPE" vaporized=""/>
    <tripinfo id="1" depart="1.00" departLane="201749676#3_0" departPos="5.10" departSpeed="0.00" departDelay="0.00" arrival="195.00" arrivalLane="-89272701#3_0" arrivalPos="77.19" arrivalSpeed="12.74" duration="194.00" routeLength="1550.83" waitSteps="36" rerouteNo="0" devices="tripinfo_1" vType="DEFAULT_VEHTYPE" vaporized=""/>
    <tripinfo id="91" depart="91.00" departLane="120704302#1_0" departPos="5.10" departSpeed="0.00" departDelay="0.00" arrival="199.00" arrivalLane="89290669#1_0" arrivalPos="9.98" arrivalSpeed="7.84" duration="108.00" routeLength="635.48" waitSteps="30" rerouteNo="0" devices="tripinfo_91" vType="DEFAULT_VEHTYPE" vaporized=""/>
    <tripinfo id="81" depart="82.00" departLane="4378842#2_0" departPos="5.10" departSpeed="0.00" departDelay="1.00" arrival="201.00" arrivalLane="4378894_0" arrivalPos="141.30" arrivalSpeed="22.08" duration="119.00" routeLength="1010.17" waitSteps="35" rerouteNo="0" devices="tripinfo_81" vType="DEFAULT_VEHTYPE" vaporized=""/>
    <tripinfo id="153" depart="153.00" departLane="5073285_0" departPos="5.10" departSpeed="0.00" departDelay="0.00" arrival="203.00" arrivalLane="4274858#11_0" arrivalPos="5.56" arrivalSpeed="21.94" duration="50.00" routeLength="565.65" waitSteps="0" rerouteNo="0" devices="tripinfo_153" vType="DEFAULT_VEHTYPE" vaporized=""/>
    <tripinfo id="138" depart="138.00" departLane="4599555#0_0" departPos="5.10" departSpeed="0.00" departDelay="0.00" arrival="206.00" arrivalLane="4306139#6_0" arrivalPos="129.44" arrivalSpeed="13.32" duration="68.00" routeLength="702.32" waitSteps="0" rerouteNo="0" devices="tripinfo_138" vType="DEFAULT_VEHTYPE" vaporized=""/>
    <tripinfo id="103" depart="103.00" departLane="4599555#0_0" departPos="5.10" departSpeed="0.00" departDelay="0.00" arrival="206.00" arrivalLane="4599553#0_0" arrivalPos="43.33" arrivalSpeed="13.69" duration="103.00" routeLength="775.19" waitSteps="12" rerouteNo="0" devices="tripinfo_103" vType="DEFAULT_VEHTYPE" vaporized=""/>
    <tripinfo id="145" depart="145.00" departLane="4378789#0_0" departPos="5.10" departSpeed="0.00" departDelay="0.00" arrival="210.00" arrivalLane="4170811#7_0" arrivalPos="30.69" arrivalSpeed="10.10" duration="65.00" routeLength="301.79" waitSteps="24" rerouteNo="0" devices="tripinfo_145" vType="DEFAULT_VEHTYPE" vaporized=""/>
    <tripinfo id="86" depart="86.00" departLane="5073315#1_0" departPos="5.10" departSpeed="0.00" departDelay="0.00" arrival="211.00" arrivalLane="4170811#6_1" arrivalPos="61.77" arrivalSpeed="17.98" duration="125.00" routeLength="764.52" waitSteps="41" rerouteNo="0" devices="tripinfo_86" vType="DEFAULT_VEHTYPE" vaporized=""/>
    <tripinfo id="170" depart="170.00" departLane="4325175#1_0" departPos="5.10" departSpeed="0.00" departDelay="0.00" arrival="211.00" arrivalLane="4378890#1_0" arrivalPos="79.52" arrivalSpeed="13.66" duration="41.00" routeLength="595.55" waitSteps="0" rerouteNo="0" devices="tripinfo_170" vType="DEFAULT_VEHTYPE" vaporized=""/>
    <tripinfo id="60" depart="60.00" departLane="83800992#8_0" departPos="5.10" departSpeed="0.00" departDelay="0.00" arrival="211.00" arrivalLane="4380303#0_0" arrivalPos="33.38" arrivalSpeed="16.66" duration="151.00" routeLength="808.64" waitSteps="38" rerouteNo="0" devices="tripinfo_60" vType="DEFAULT_VEHTYPE" vaporized=""/>
    <tripinfo id="160" depart="160.00" departLane="4170811#11_0" departPos="5.10" departSpeed="0.00" departDelay="0.00" arrival="211.00" arrivalLane="198512068_0" arrivalPos="13.83" arrivalSpeed="7.64" duration="51.00" routeLength="543.66" waitSteps="0" rerouteNo="0" devices="tripinfo_160" vType="DEFAULT_VEHTYPE" vaporized=""/>
    <tripinfo id="183" depart="186.00" departLane="4306139#9_0" departPos="5.10" departSpeed="0.00" departDelay="3.00" arrival="213.00" arrivalLane="157518927#1_0" arrivalPos="124.84" arrivalSpeed="23.41" duration="27.00" routeLength="180.37" waitSteps="3" rerouteNo="0" devices="tripinfo_183" vType="DEFAULT_VEHTYPE" vaporized=""/>
    <tripinfo id="180" depart="180.00" departLane="83824142#0_0" departPos="3.51" departSpeed="0.00" departDelay="0.00" arrival="213.00" arrivalLane="4324388#0_0" arrivalPos="87.94" arrivalSpeed="12.75" duration="33.00" routeLength="312.64" waitSteps="0" rerouteNo="0" devices="tripinfo_180" vType="DEFAULT_VEHTYPE" vaporized=""/>
    <tripinfo id="58" depart="58.00" departLane="133818200#1_0" departPos="5.10" departSpeed="0.00" departDelay="0.00" arrival="213.00" arrivalLane="175016280#0_0" arrivalPos="95.03" arrivalSpeed="19.78" duration="155.00" routeLength="1360.85" waitSteps="6" rerouteNo="0" devices="tripinfo_58" vType="DEFAULT_VEHTYPE" vaporized=""/>
    <tripinfo id="113" depart="113.00" departLane="4306145#7_0" departPos="5.10" departSpeed="0.00" departDelay="0.00" arrival="215.00" arrivalLane="189649885_0" arrivalPos="112.17" arrivalSpeed="26.06" duration="102.00" routeLength="931.98" waitSteps="12" rerouteNo="0" devices="tripinfo_113" vType="DEFAULT_VEHTYPE" vaporized=""/>
    <tripinfo id="19" depart="19.00" departLane="41262183_0" departPos="5.10" departSpeed="0.00" departDelay="0.00" arrival="215.00" arrivalLane="34407231_0" arrivalPos="40.33" arrivalSpeed="2.36" duration="196.00" routeLength="1001.28" waitSteps="75" rerouteNo="0" devices="tripinfo_19" vType="DEFAULT_VEHTYPE" vaporized=""/>
    <tripinfo id="179" depart="179.00" departLane="4378778#1_0" departPos="5.10" departSpeed="0.00" departDelay="0.00" arrival="215.00" arrivalLane="4378838#1_0" arrivalPos="76.39" arrivalSpeed="21.88" duration="36.00" routeLength="492.53" waitSteps="0" rerouteNo="0" devices="tripinfo_179" vType="DEFAULT_VEHTYPE" vaporized=""/>
    <tripinfo id="133" depart="133.00" departLane="192922521#8_0" departPos="5.10" departSpeed="0.00" departDelay="0.00" arrival="216.00" arrivalLane="4985790#9_0" arrivalPos="53.00" arrivalSpeed="13.67" duration="83.00" routeLength="690.50" waitSteps="7" rerouteNo="0" devices="tripinfo_133" vType="DEFAULT_VEHTYPE" vaporized=""/>
    <tripinfo id="33" depart="33.00" departLane="4324352#0_0" departPos="5.10" departSpeed="0.00" departDelay="0.00" arrival="217.00" arrivalLane="-10591247_0" arrivalPos="108.35" arrivalSpeed="13.57" duration="184.00" routeLength="1784.63" waitSteps="33" rerouteNo="0" devices="tripinfo_33" vType="DEFAULT_VEHTYPE" vaporized=""/>
    <tripinfo id="72" depart="72.00" departLane="120704302#0_0" departPos="5.10" departSpeed="0.00" departDelay="0.00" arrival="217.00" arrivalLane="109213554#0_0" arrivalPos="84.50" arrivalSpeed="19.61" duration="145.00" routeLength="1210.53" waitSteps="44" rerouteNo="0" devices="tripinfo_72" vType="DEFAULT_VEHTYPE" vaporized=""/>
    <tripinfo id="40" depart="40.00" departLane="157518927#2_0" departPos="5.10" departSpeed="0.00" departDelay="0.00" arrival="219.00" arrivalLane="-4324355#2_0" arrivalPos="67.03" arrivalSpeed="13.58" duration="179.00" routeLength="1216.82" waitSteps="39" rerouteNo="0" devices="tripinfo_40" vType="DEFAULT_VEHTYPE" vaporized=""/>
    <tripinfo id="57" depart="57.00" departLane="157518929#6_0" departPos="5.10" departSpeed="0.00" departDelay="0.00" arrival="222.00" arrivalLane="85511735_0" arrivalPos="23.38" arrivalSpeed="13.62" duration="165.00" routeLength="1020.69" waitSteps="71" rerouteNo="0" devices="tripinfo_57" vType="DEFAULT_VEHTYPE" vaporized=""/>
    <tripinfo id="188" depart="188.00" departLane="4378789#1_0" departPos="5.10" departSpeed="0.00" departDelay="0.00" arrival="225.00" arrivalLane="4325176#2_0" arrivalPos="83.01" arrivalSpeed="13.87" duration="37.00" routeLength="331.78" waitSteps="0" rerouteNo="0" devices="tripinfo_188" vType="DEFAULT_VEHTYPE" vaporized=""/>
    <tripinfo id="97" depart="97.00" departLane="5076425_0" departPos="5.10" departSpeed="0.00" departDelay="0.00" arrival="226.00" arrivalLane="49680966#5_0" arrivalPos="51.25" arrivalSpeed="13.39" duration="129.00" routeLength="1084.97" waitSteps="22" rerouteNo="0" devices="tripinfo_97" vType="DEFAULT_VEHTYPE" vaporized=""/>
    <tripinfo id="108" depart="112.00" departLane="157518927#3_0" departPos="5.10" departSpeed="0.00" departDelay="4.00" arrival="226.00" arrivalLane="4985790#7_0" arrivalPos="46.23" arrivalSpeed="12.97" duration="114.00" routeLength="440.00" waitSteps="59" rerouteNo="0" devices="tripinfo_108" vType="DEFAULT_VEHTYPE" vaporized=""/>
    <tripinfo id="162" depart="162.00" departLane="201749676#4_0" departPos="5.10" departSpeed="0.00" departDelay="0.00" arrival="227.00" arrivalLane="4378845#0_0" arrivalPos="87.09" arrivalSpeed="13.37" duration="65.00" routeLength="670.03" waitSteps="0" rerouteNo="0" devices="tripinfo_162" vType="DEFAULT_VEHTYPE" vaporized=""/>
    <tripinfo id="118" depart="118.00" departLane="189649893#0_0" departPos="5.10" departSpeed="0.00" departDelay="0.00" arrival="227.00" arrivalLane="4325173#2_0" arrivalPos="83.46" arrivalSpeed="18.63" duration="109.00" routeLength="1259.80" waitSteps="0" rerouteNo="0" devices="tripinfo_118" vType="DEFAULT_VEHTYPE" vaporized=""/>
    <tripinfo id="51" depart="51.00" departLane="189649885_0" departPos="5.10" departSpeed="0.00" departDelay="0.00" arrival="228.00" arrivalLane="133157279_0" arrivalPos="86.12" arrivalSpeed="13.59" duration="177.00" routeLength="1741.92" waitSteps="37" rerouteNo="0" devices="tripinfo_51" vType="DEFAULT_VEHTYPE" vaporized=""/>
    <tripinfo id="154" depart="154.00" departLane="4345367#1_0" departPos="2.02" departSpeed="0.00" departDelay="0.00" arrival="234.00" arrivalLane="65092502#2_0" arrivalPos="112.40" arrivalSpeed="12.23" duration="80.00" routeLength="646.44" waitSteps="25" rerouteNo="0" devices="tripinfo_154" vType="DEFAULT_VEHTYPE" vaporized=""/>
    <tripinfo id="96" depart="96.00" departLane="211418717#1_0" departPos="2.86" departSpeed="0.00" departDelay="0.00" arrival="234.00" arrivalLane="89388048_0" arrivalPos="109.98" arrivalSpeed="21.26" duration="138.00" routeLength="1039.39" waitSteps="30" rerouteNo="0" devices="tripinfo_96" vType="DEFAULT_VEHTYPE" vaporized=""/>
    <tripinfo id="75" depart="75.00" departLane="41059977#1_0" departPos="5.10" departSpeed="0.00" departDelay="0.00" arrival="234.00" arrivalLane="65092505_0" arrivalPos="21.74" arrivalSpeed="21.67" duration="159.00" routeLength="1241.02" waitSteps="45" rerouteNo="0" devices="tripinfo_75" vType="DEFAULT_VEHTYPE" vaporized=""/>
    <tripinfo id="56" depart="56.00" departLane="121250742#0_0" departPos="5.10" departSpeed="0.00" departDelay="0.00" arrival="235.00" arrivalLane="5073315#2_0" arrivalPos="22.18" arrivalSpeed="7.75" duration="179.00" routeLength="1394.40" waitSteps="60" rerouteNo="0" devices="tripinfo_56" vType="DEFAULT_VEHTYPE" vaporized=""/>
    <tripinfo id="52" depart="52.00" departLane="44503646#1_0" departPos="5.10" departSpeed="0.00" departDelay="0.00" arrival="238.00" arrivalLane="4378878_0" arrivalPos="149.31" arrivalSpeed="21.96" duration="186.00" routeLength="1097.66" waitSteps="81" rerouteNo="0" devices="tripinfo_52" vType="DEFAULT_VEHTYPE" vaporized=""/>
    <tripinfo id="206" depart="207.00" departLane="4324352#0_0" departPos="5.10" departSpeed="0.00" departDelay="1.00" arrival="240.00" arrivalLane="65092502#8_0" arrivalPos="79.98" arrivalSpeed="21.62" duration="33.00" routeLength="469.40" waitSteps="0" rerouteNo="0" devices="tripinfo_206" vType="DEFAULT_VEHTYPE" vaporized=""/>
    <tripinfo id="181" depart="181.00" departLane="65092502#2_0" departPos="5.10" departSpeed="0.00" departDelay="0.00" arrival="241.00" arrivalLane="4325173#2_0" arrivalPos="68.25" arrivalSpeed="17.97" duration="60.00" routeLength="614.15" waitSteps="3" rerouteNo="0" devices="tripinfo_181" vType="DEFAULT_VEHTYPE" vaporized=""/>
    <tripinfo id="59" depart="59.00" departLane="133818200#3_0" departPos="5.10" departSpeed="0.00" departDelay="0.00" arrival="246.00" arrivalLane="4324369#1_0" arrivalPos="197.30" arrivalSpeed="21.30" duration="187.00" routeLength="1632.96" waitSteps="42" rerouteNo="0" devices="tripinfo_59" vType="DEFAULT_VEHTYPE" vaporized=""/>
    <tripinfo id="158" depart="158.00" departLane="83800992#4_0" departPos="5.10" departSpeed="0.00" departDelay="0.00" arrival="247.00" arrivalLane="121674431#2_0" arrivalPos="138.88" arrivalSpeed="20.95" duration="89.00" routeLength="1158.03" waitSteps="0" rerouteNo="0" devices="tripinfo_158" vType="DEFAULT_VEHTYPE" vaporized=""/>
    <tripinfo id="67" depart="67.00" departLane="4325175#1_0" departPos="5.10" departSpeed="0.00" departDelay="0.00" arrival="247.00" arrivalLane="49680966#9_0" arrivalPos="79.02" arrivalSpeed="12.68" duration="180.00" routeLength="1101.17" waitSteps="74" rerouteNo="0" devices="tripinfo_67" vType="DEFAULT_VEHTYPE" vaporized=""/>
    <tripinfo id="152" depart="152.00" departLane="4378789#0_0" departPos="5.10" departSpeed="0.00" departDelay="0.00" arrival="249.00" arrivalLane="220001147#8_0" arrivalPos="12.63" arrivalSpeed="12.77" duration="97.00" routeLength="398.51" waitSteps="35" rerouteNo="0" devices="tripinfo_152" vType="DEFAULT_VEHTYPE" vaporized=""/>
    <tripinfo id="82" depart="82.00" departLane="208005998#1_0" departPos="5.10" departSpeed="0.00" departDelay="0.00" arrival="252.00" arrivalLane="4985790#3_0" arrivalPos="80.81" arrivalSpeed="13.70" duration="170.00" routeLength="1214.74" waitSteps="42" rerouteNo="0" devices="tripinfo_82" vType="DEFAULT_VEHTYPE" vaporized=""/>
    <tripinfo id="177" depart="180.00" departLane="89388048_0" departPos="5.10" departSpeed="0.00" departDelay="3.00" arrival="257.00" arrivalLane="157518927#4_0" arrivalPos="11.41" arrivalSpeed="27.22" duration="77.00" routeLength="838.20" waitSteps="16" rerouteNo="0" devices="tripinfo_177" vType="DEFAULT_VEHTYPE" vaporized=""/>
    <tripinfo id="94" depart="94.00" departLane="157518929#5_0" departPos="5.10" departSpeed="0.00" departDelay="0.00" arrival="257.00" arrivalLane="210438335#0_0" arrivalPos="66.95" arrivalSpeed="8.30" duration="163.00" routeLength="1149.18" waitSteps="31" rerouteNo="0" devices="tripinfo_94" vType="DEFAULT_VEHTYPE" vaporized=""/>
    <tripinfo id="105" depart="105.00" departLane="4252366_0" departPos="5.10" departSpeed="0.00" departDelay="0.00" arrival="257.00" arrivalLane="5073316#1_0" arrivalPos="61.96" arrivalSpeed="13.00" duration="152.00" routeLength="1107.34" waitSteps="64" rerouteNo="0" devices="tripinfo_105" vType="DEFAULT_VEHTYPE" vaporized=""/>